LAMMPS (7 Feb 2024 - Development - patch_7Feb2024_update1-89-g6c3c724f9c)
# 3d Lennard-Jones melt

# variable	x equal 1
# variable	y equal 1
# variable	z equal 1
variable     t equal 50000000
variable T equal 1.0

# variable f

variable	xx equal ${f}#*$x
variable	xx equal 8.0
variable	yy equal ${f}#*$y
variable	yy equal 8.0
variable	zz equal ${f}#*$z
variable	zz equal 8.0


print "xx ${xx}"
xx 8
units		lj
atom_style	atomic

#lattice		fcc 1.2

region		box block 0 ${xx} 0 ${yy} 0 ${zz}
region		box block 0 8 0 ${yy} 0 ${zz}
region		box block 0 8 0 8 0 ${zz}
region		box block 0 8 0 8 0 8
create_box	1 box
Created orthogonal box = (0 0 0) to (8 8 8)
  1 by 2 by 2 MPI processor grid
#create_atoms	1 box

variable rhoinit equal 0.1
variable npart equal round(${xx}*${yy}*${zz}*${rhoinit})
variable npart equal round(8*${yy}*${zz}*${rhoinit})
variable npart equal round(8*8*${zz}*${rhoinit})
variable npart equal round(8*8*8*${rhoinit})
variable npart equal round(8*8*8*0.1)

create_atoms 1 random  ${npart}  1 box
create_atoms 1 random  51  1 box
Created 51 atoms
  using lattice units in orthogonal box = (0 0 0) to (8 8 8)
  create_atoms CPU = 0.001 seconds
mass		1 1.0




pair_style	lj/cut 2.5
pair_coeff	1 1 1.0 1.0 2.5
pair_modify shift yes

neighbor	0.3 bin
neigh_modify	delay 0 every 20 check no

# variable betamu equal -3.865950
variable mu equal ${betamu}*$T
variable mu equal -3.092*$T
variable mu equal -3.092*1


dump mydump all atom 1000 tj-mu${mu}-T$T.atom
dump mydump all atom 1000 tj-mu-3.092-T$T.atom
dump mydump all atom 1000 tj-mu-3.092-T1.atom

min_style cg
minimize 1.0e-8 1.0e-8 1000 10000
Switching to 'neigh_modify every 1 delay 0 check yes' setting during minimization
Generated 0 of 0 mixed pair_coeff terms from geometric mixing rule
Neighbor list info ...
  update: every = 1 steps, delay = 0 steps, check = yes
  max neighbors/atom: 2000, page size: 100000
  master list distance cutoff = 2.8
  ghost atom cutoff = 2.8
  binsize = 1.4, bins = 6 6 6
  1 neighbor lists, perpetual/occasional/extra = 1 0 0
  (1) pair lj/cut, perpetual
      attributes: half, newton on
      pair build: half/bin/atomonly/newton
      stencil: half/bin/3d
      bin: standard
Per MPI rank memory allocation (min/avg/max) = 4.186 | 4.186 | 4.186 Mbytes
   Step          Temp          E_pair         E_mol          TotEng         Press     
         0   0              157603.02      0              157603.02      62822.198    
       936   0             -4.1851423      0             -4.1851423      2.6556891e-05
Loop time of 0.0396291 on 4 procs for 936 steps with 51 atoms

99.0% CPU use with 4 MPI tasks x no OpenMP threads

Minimization stats:
  Stopping criterion = energy tolerance
  Energy initial, next-to-last, final = 
      157603.019655957    -4.185142291789  -4.18514232887632
  Force two-norm initial, final = 4.3712523e+08 0.028599514
  Force max component initial, final = 2.9901061e+08 0.010663264
  Final line search alpha, max atom move = 1 0.010663264
  Iterations, force evaluations = 936 1861

MPI task timing breakdown:
Section |  min time  |  avg time  |  max time  |%varavg| %total
---------------------------------------------------------------
Pair    | 0.0014848  | 0.0062948  | 0.013587   |   5.6 | 15.88
Neigh   | 0.00088289 | 0.0014331  | 0.0020459  |   1.1 |  3.62
Comm    | 0.015085   | 0.02145    | 0.02382    |   2.5 | 54.13
Output  | 0          | 0          | 0          |   0.0 |  0.00
Modify  | 0          | 0          | 0          |   0.0 |  0.00
Other   |            | 0.01045    |            |       | 26.37

Nlocal:          12.75 ave          35 max           1 min
Histogram: 2 0 1 0 0 0 0 0 0 1
Nghost:         108.25 ave         163 max          50 min
Histogram: 1 0 0 0 1 0 1 0 0 1
Neighs:         193.75 ave         485 max          30 min
Histogram: 1 1 1 0 0 0 0 0 0 1

Total # of neighbors = 775
Ave neighs/atom = 15.196078
Neighbor list builds = 174
Dangerous builds not checked

group       gcmcgroup type 1
51 atoms in group gcmcgroup
compute mdtemp all temp
compute_modify mdtemp dynamic/dof yes


fix mygcmc gcmcgroup  gcmc/umbrella 1 10 0 1 29494 ${T} ${mu} 1.0 umbrella 0.0005 150
fix mygcmc gcmcgroup  gcmc/umbrella 1 10 0 1 29494 1 ${mu} 1.0 umbrella 0.0005 150
fix mygcmc gcmcgroup  gcmc/umbrella 1 10 0 1 29494 1 -3.092 1.0 umbrella 0.0005 150
fix	mdnvt all nvt temp 1.0 1.0 0.05
fix_modify mdnvt temp mdtemp

# atom count

variable    type1 atom "type==1"
group       type1 dynamic gcmcgroup var type1
dynamic group type1 defined
variable    n1 equal count(type1)

# averaging

# variable    rho equal density
# variable    p equal press
# variable    nugget equal 1.0e-8
# variable        lambda equal 1.0
# variable        muex equal ${mu}-${T}*ln(density*${lambda}+${nugget})
# fix         ave all ave/time 10 100 1000 v_rho v_p v_muex v_n1 ave one file rho_vs_p.dat
# variable    rhoav equal f_ave[1]
# variable    pav equal f_ave[2]
# variable    muexav equal f_ave[3]
# variable    n1av equal f_ave[4]

# output

# variable    tacc equal f_mygcmc[2]/(f_mygcmc[1]+${nugget})
# variable    iacc equal f_mygcmc[4]/(f_mygcmc[3]+${nugget})
# variable    dacc equal f_mygcmc[6]/(f_mygcmc[5]+${nugget})
compute_modify  thermo_temp dynamic yes
thermo_style    custom step c_mdtemp press pe ke density atoms # v_iacc v_dacc v_tacc v_rhoav v_pav v_muexav v_n1av
thermo          1000


# fix extra all print 200 "${rho}" file density-betamu$	{betamu}-T$T.txt screen no
fix extra all print 200 "${n1} $(density) $(press)" file n-betamu${betamu}-T$T.txt screen no
fix extra all print 200 "${n1} $(density) $(press)" file n-betamu-3.092-T$T.txt screen no
fix extra all print 200 "${n1} $(density) $(press)" file n-betamu-3.092-T1.txt screen no

run		$t
run		50000000
Generated 0 of 0 mixed pair_coeff terms from geometric mixing rule
Per MPI rank memory allocation (min/avg/max) = 3.562 | 3.562 | 3.562 Mbytes
   Step        c_mdtemp        Press          PotEng         KinEng        Density        Atoms   
       936   0              2.6556891e-05 -4.1851423      0              0.099609375           51 
      1000   1.1606714      0.2232376     -2.6529919      1.7222866      0.18164062            93 
      2000   1.1330883      0.10431191    -1.688188       1.6834454      0.20507812           105 
      3000   0.8981706      0.088840508   -1.346481       1.3329234      0.18359375            94 
      4000   1.0367123      0.044531302   -1.0194468      1.5303848      0.12304688            63 
      5000   1.0295466      0.04587619    -0.77138134     1.5146214      0.1015625             52 
      6000   0.84190441     0.056120334   -0.67094609     1.2296235      0.07421875            38 
      7000   1.1044314      0.10232976    -1.0160964      1.6315464      0.12890625            66 
      8000   1.0813438      0.028908467   -0.76375401     1.5889133      0.095703125           49 
      9000   1.2250222      0.10041496    -0.85952945     1.8063886      0.11523438            59 
     10000   0.76422743     0.039183668   -0.66187395     1.1214207      0.08984375            46 
     11000   0.9994323      0.06473072    -1.160281       1.4824912      0.17578125            90 
     12000   0.92632828     0.065982275   -1.3081679      1.3731454      0.16601562            85 
     13000   0.84186205     0.054408715   -0.50213174     1.234731       0.087890625           45 
     14000   1.1119275      0.11766663    -0.87432848     1.6405488      0.11914062            61 
     15000   1.0560423      0.082022249   -1.4083668      1.5620626      0.140625              72 
     16000   1.0070536      0.080527651   -0.8865606      1.4809612      0.099609375           51 
     17000   0.97028062     0.07577916    -0.65330146     1.4215739      0.083984375           43 
     18000   0.86508026     0.03591388    -0.84694059     1.2770232      0.12304688            63 
     19000   0.8423103      0.043510566   -0.32344346     1.2273664      0.068359375           35 
     20000   0.874097       0.027818253   -0.83570478     1.2881429      0.11132812            57 
     21000   0.93116285     0.050219004   -0.92196539     1.3749201      0.125                 64 
     22000   1.0321517      0.11268572    -0.55266157     1.5184539      0.1015625             52 
     23000   0.87680626     0.061615519   -0.6928003      1.289421       0.099609375           51 
     24000   0.97895909     0.03182933    -0.65435074     1.4378462      0.09375               48 
     25000   0.9177274      0.038302914   -0.56535315     1.3453049      0.0859375             44 
     26000   1.1265987      0.12083088    -1.0165354      1.6654067      0.13476562            69 
     27000   0.80716011     0.050441164   -0.72037354     1.1870002      0.099609375           51 
     28000   0.95589507     0.038230907   -0.62100165     1.3997035      0.08203125            42 
     29000   1.0578144      0.092699212   -1.0178605      1.5615355      0.12304688            63 
     30000   1.0125974      0.027122489   -0.75796132     1.4865792      0.091796875           47 
     31000   0.906125       0.097833257   -1.2838759      1.3428117      0.16210938            83 
     32000   0.9790437      0.068525893   -1.1502468      1.4478815      0.13867188            71 
     33000   0.90494404     0.063980533   -0.93233101     1.3388213      0.14257812            73 
     34000   0.89158666     0.066440868   -0.98709967     1.3195483      0.14648438            75 
     35000   1.1484038      0.13616704    -1.3502726      1.7052056      0.19335938            99 
     36000   0.98764558     0.030814723   -1.2258551      1.4634017      0.16015625            82 
     37000   1.0837494      0.018759262   -0.87228825     1.5960673      0.10742188            55 
     38000   1.2834072      0.036478576   -0.63694157     1.8757489      0.076171875           39 
     39000   0.96395545     0.030229652   -0.78064879     1.4158096      0.09375               48 
     40000   0.96833103     0.035041296   -0.69081338     1.4228538      0.095703125           49 
     41000   1.0516441      0.075029564   -1.4376143      1.5577478      0.15625               80 
     42000   1.28288        0.057923795   -0.63649259     1.8693394      0.068359375           35 
     43000   0.95291063     0.069886956   -1.157774       1.4129365      0.16992188            87 
     44000   0.98105131     0.015292066   -1.1694158      1.4502498      0.13476562            69 
     45000   0.98164592    -0.014437247   -1.2084989      1.4517299      0.13867188            71 
     46000   1.0843959      0.033042113   -0.61324477     1.5975476      0.109375              56 
     47000   0.91298423     0.081536756   -0.96737171     1.3431403      0.1015625             52 
     48000   1.2183157      0.073051931   -0.64511927     1.7737244      0.06640625            34 
     49000   1.1328529      0.062050705   -1.3206175      1.6788061      0.16210938            83 
     50000   0.99878523    -0.058855382   -1.9708445      1.4882561      0.29492188           151 
     51000   0.94156865     0.058879645   -0.9658994      1.3891997      0.11914062            61 
     52000   0.98859985     0.025975815   -1.4340729      1.4671242      0.18359375            94 
     53000   0.85435311     0.079399956   -0.93597844     1.2594343      0.11328125            58 
     54000   0.91676839     0.043044472   -0.82315062     1.3438991      0.0859375             44 
     55000   1.029374       0.034837606   -1.1038835      1.526712       0.17382812            89 
     56000   0.95576196     0.046156418   -2.0602798      1.4247933      0.31640625           162 
     57000   0.94919767     0.043551236   -1.4488979      1.4107341      0.21289062           109 
     58000   1.0419729      0.077506988   -1.1605546      1.542394       0.1484375             76 
     59000   0.94750626     0.054165675   -1.4292301      1.4043396      0.1640625             84 
     60000   0.86564027     0.020086238   -1.1176046      1.2820242      0.15429688            79 
     61000   0.83173044     0.029847018   -0.75810362     1.2240561      0.10351562            53 
     62000   0.83738544     0.069690681   -0.72996238     1.2281653      0.087890625           45 
     63000   0.80302491     0.04399298    -0.85263214     1.180919       0.099609375           51 
     64000   0.90776904     0.056532936   -0.72775545     1.3368962      0.10742188            55 
     65000   1.2596578      0.11525274    -0.72104102     1.8492849      0.091796875           47 
     66000   1.0069977      0.022875571   -1.3444866      1.4950834      0.19140625            98 
     67000   1.0811172      0.0634943     -0.78330249     1.587172       0.091796875           47 
     68000   0.94058683     0.12653379    -0.727892       1.3808615      0.091796875           47 
     69000   0.98358945     0.03958909    -1.0687279      1.4548927      0.140625              72 
     70000   0.94028591     0.089046537   -1.0185527      1.3883909      0.125                 64 
     71000   0.95672661     0.014787573   -0.66921288     1.4069509      0.099609375           51 
     72000   1.1091284      0.028965869   -1.0939291      1.6267217      0.087890625           45 
     73000   1.0503421      0.079545398   -1.0196359      1.5501016      0.12109375            62 
     74000   0.97342776     0.045819788   -1.2010503      1.4418899      0.15625               80 
     75000   0.99012699     0.01307403    -1.1486883      1.4642723      0.13867188            71 
     76000   1.0290445      0.01235364    -1.2293873      1.5240279      0.15429688            79 
     77000   1.1388384      0.091813171   -1.1984871      1.6874252      0.16015625            82 
     78000   1.1171225      0.075252821   -1.3620281      1.6542007      0.15234375            78 
     79000   0.97931953     0.18662049    -0.83884574     1.4460265      0.125                 64 
     80000   0.94519049     0.016270342   -1.2296581      1.3993729      0.15039062            77 
     81000   1.0670925      0.084152361   -1.0193679      1.5725574      0.11132812            57 
     82000   0.934115       0.022354986   -0.8851961      1.3765905      0.11132812            57 
     83000   1.1107477      0.035066432   -1.4913426      1.6483969      0.18359375            94 
     84000   1.1089897      0.034356903   -1.125523       1.641005       0.14453125            74 
     85000   1.0366061      0.09217346    -0.86637338     1.53135        0.12890625            66 
     86000   1.0029882      0.060952777   -0.95824439     1.4809747      0.125                 64 
     87000   1.0990684      0.10143903    -0.98682379     1.6236237      0.12890625            66 
     88000   1.0733147      0.14574655    -0.95187567     1.5840047      0.12109375            62 
     89000   0.80876036    -0.0017570852  -1.1552171      1.196054       0.13867188            71 
     90000   1.0490297      0.092523535   -0.77751592     1.534206       0.078125              40 
     91000   1.02819        0.0762514     -1.0201907      1.5181868      0.125                 64 
     92000   0.85694065     0.092070758   -0.7497873      1.2632487      0.11328125            58 
     93000   1.0125079      0.048386967   -0.7231026      1.4877667      0.095703125           49 
     94000   1.0175571      0.039267257   -0.47742751     1.4754578      0.05859375            30 
     95000   1.1342547      0.084199458   -0.69137423     1.6635736      0.087890625           45 
     96000   1.0484578      0.070798926   -1.0966118      1.5537387      0.16210938            83 
     97000   0.91834336     0.025978582   -0.95536188     1.3549328      0.11914062            61 
     98000   1.0115244      0.057771538   -0.83977557     1.4856765      0.09375               48 
     99000   0.74875475    -0.0067440075  -0.93020195     1.106115       0.12890625            66 
    100000   0.94915675     0.060234611   -1.0009362      1.4011362      0.12304688            63 
    101000   0.86437979     0.044638186   -0.98433529     1.2775025      0.1328125             68 
    102000   1.112457       0.088072816   -0.83136236     1.6404027      0.11523438            59 
    103000   0.97970968     0.083059389   -1.4526777      1.454569       0.19140625            98 
    104000   1.2589727      0.058097578   -0.63820179     1.8423991      0.080078125           41 
    105000   0.93862942     0.02851405    -0.60860657     1.3688346      0.0703125             36 
    106000   0.99874834     0.046306498   -0.83932152     1.4727306      0.11523438            59 
    107000   1.0026243     -0.0072241216  -1.1697133      1.4868463      0.171875              88 
    108000   1.1220395      0.06902532    -0.65579337     1.6524582      0.10742188            55 
    109000   1.0483482      0.067583593   -0.9511848      1.5533452      0.16015625            82 
    110000   0.98733302     0.063473482   -1.7222985      1.469056       0.2421875            124 
    111000   0.97652943     0.018949099   -2.2788884      1.4567898      0.35742188           183 
    112000   1.0114347      0.042837956   -2.1650267      1.5084328      0.33984375           174 
    113000   1.0134998      0.015969902   -2.9649463      1.5138888      0.46679688           239 
    114000   1.0476651      0.19949529    -3.0737826      1.5653349      0.49804688           255 
    115000   1.1075186     -0.015182292   -3.1331216      1.6549372      0.51171875           262 
    116000   0.97470728    -0.095984544   -3.2936012      1.4567827      0.54101562           277 
    117000   0.95262498     0.13674477    -3.4299612      1.4241744      0.5859375            300 
    118000   1.0548378      0.11480098    -3.5518107      1.577069       0.59570312           305 
    119000   0.99816202    -0.032187982   -3.4143033      1.4920262      0.56054688           287 
    120000   0.96890575     0.078920817   -3.4991078      1.4485302      0.58789062           301 
    121000   0.98680726    -0.20452278    -3.41015        1.4750172      0.55664062           285 
    122000   0.96010851     0.1502208     -3.3416507      1.4351967      0.56640625           290 
    123000   1.0123846      0.074516656   -3.4377066      1.5133223      0.56445312           289 
    124000   1.0291152     -0.0080077624  -3.4174327      1.5381794      0.54882812           281 
    125000   0.98664578    -0.10232874    -3.2623004      1.4745673      0.53515625           274 
    126000   1.0057363      0.041952074   -2.9567265      1.5023706      0.47265625           242 
    127000   0.97858612    -0.01437764    -2.7073029      1.4612968      0.43554688           223 
    128000   0.95247433    -0.0050076384  -2.6640716      1.4220039      0.41601562           213 
    129000   0.95146721     0.0061342623  -3.0828324      1.4218152      0.51757812           265 
    130000   0.9841399     -0.013218447   -2.8044131      1.4699013      0.45703125           234 
    131000   0.91263835    -0.18544135    -2.609086       1.3623121      0.40234375           206 
    132000   0.97517661     0.084315847   -2.864001       1.4566954      0.47070312           241 
    133000   0.93366852     0.074894359   -3.0320605      1.3952965      0.52539062           269 
    134000   0.96553727     0.20484711    -2.9442686      1.4424185      0.48046875           246 
    135000   1.0070799     -0.076248106   -2.4762659      1.5025417      0.36523438           187 
    136000   1.0248502     -0.15628926    -3.1783536      1.5314078      0.51171875           262 
    137000   1.0024617      0.7058985     -3.2432555      1.4985429      0.5703125            292 
    138000   0.96773366     0.31210047    -3.4668063      1.4467939      0.58984375           302 
    139000   1.1075088      0.22584497    -3.5672204      1.6558869      0.60351562           309 
    140000   1.0035986      0.033304562   -3.1827975      1.4997807      0.5234375            268 
    141000   0.91841296     0.14365135    -2.8927528      1.3718311      0.46484375           238 
    142000   1.0399744      0.26389705    -2.9464158      1.5534887      0.47070312           241 
    143000   1.0340965     -0.22808165    -3.2133919      1.5453785      0.52539062           269 
    144000   0.94905982    -0.34138305    -3.0963295      1.418007       0.49804688           255 
    145000   0.9376795      0.047775542   -3.3293704      1.4015138      0.54882812           281 
    146000   0.96359493     0.057455555   -3.1557112      1.4400588      0.52929688           271 
    147000   0.97688029     0.14659337    -3.1248709      1.4598323      0.52148438           267 
    148000   1.0340613      0.0046864825  -3.1693972      1.5452388      0.51757812           265 
    149000   1.05864        0.27250123    -3.1087187      1.5820787      0.52734375           270 
    150000   1.0530207      0.22165755    -3.2375361      1.5738696      0.54492188           279 
    151000   1.0799774      0.045934643   -3.4024601      1.6144933      0.578125             296 
    152000   0.88228531    -0.15839007    -3.6401055      1.3191726      0.60742188           311 
    153000   0.95184329     0.21030614    -3.488131       1.4230683      0.59375              304 
    154000   0.99377214     0.069813382   -3.2291092      1.4851778      0.53125              272 
    155000   0.96620446     0.097017712   -3.2780185      1.4442035      0.5546875            284 
    156000   0.97004355     0.1886881     -3.2408794      1.4498124      0.54101562           277 
    157000   1.0500723      0.29958743    -3.4844135      1.5699272      0.59375              304 
    158000   0.95260708    -0.00019865407 -3.5106941      1.4241634      0.58789062           301 
    159000   0.96214563    -0.13501909    -3.494959       1.4383262      0.57617188           295 
    160000   0.99777132    -0.12484292    -3.0789414      1.4909445      0.51171875           262 
    161000   0.94727463    -0.1065631     -2.8370452      1.4148655      0.45898438           235 
    162000   1.0411557      0.15505954    -2.4564006      1.5535139      0.37109375           190 
    163000   0.93976367    -0.13185529    -2.2520781      1.4013535      0.33203125           170 
    164000   0.90118818     0.052649161   -1.8119386      1.3421267      0.2734375            140 
    165000   0.93276027     0.052274367   -1.0776787      1.3772788      0.125                 64 
    166000   1.0242471      0.053622011   -0.900692       1.5111843      0.11914062            61 
    167000   0.9975219      0.099976557   -0.76066044     1.4695635      0.109375              56 
    168000   0.76460047     0.041490172   -1.1440517      1.1334078      0.16601562            85 
    169000   1.1270002      0.072397492   -0.89038301     1.6673427      0.14257812            73 
    170000   1.0097348      0.03411956    -0.72050727     1.486554       0.10546875            54 
    171000   1.0229144      0.056088526   -0.92205974     1.5083652      0.11523438            59 
    172000   0.91119014     0.07410257    -0.66899762     1.3409968      0.10351562            53 
    173000   0.90714938     0.046838918   -0.78165433     1.3394627      0.125                 64 
    174000   1.2063193      0.08670126    -0.88780598     1.7777337      0.11132812            57 
    175000   0.8402943      0.048938323   -0.72561542     1.2375243      0.10742188            55 
    176000   1.0752672      0.065215464   -0.67375213     1.5770586      0.087890625           45 
    177000   1.0664671      0.0018049158  -1.5415456      1.5856682      0.22265625           114 
    178000   0.97646687     0.13083478    -1.8555943      1.4528882      0.2421875            124 
    179000   1.033891       0.051662773   -1.0061115      1.5292971      0.140625              72 
    180000   0.93997826     0.10752452    -0.72680321     1.381768       0.09765625            50 
    181000   0.96608388     0.061922298   -0.46951077     1.4154252      0.083984375           43 
    182000   0.95361777     0.066186989   -1.8290762      1.4185064      0.234375             120 
    183000   1.1710603      0.097902296   -1.1084196      1.73407        0.15234375            78 
    184000   0.99154363     0.040470984   -0.37685374     1.4322297      0.052734375           27 
    185000   0.85339305     0.026322062   -0.83388139     1.2454926      0.072265625           37 
    186000   1.1128313      0.07999413    -0.97563199     1.6454006      0.13671875            70 
    187000   1.0527272      0.16602318    -1.1112939      1.5602921      0.1640625             84 
    188000   0.96265014     0.041748021   -1.0935211      1.4217602      0.12695312            65 
    189000   0.91034526     0.038454779   -0.42769253     1.3241386      0.064453125           33 
    190000   0.81568685     0.097156956   -1.1007278      1.207844       0.15234375            78 
    191000   1.1500409      0.10539358    -0.68257995     1.691887       0.1015625             52 
    192000   0.95181431     0.06539856    -0.86202402     1.399167       0.09765625            50 
    193000   1.0115997      0.046347066   -0.89444264     1.4966132      0.14257812            73 
    194000   0.99956519     0.044031429   -1.041637       1.4769695      0.13085938            67 
    195000   0.87603559     0.0002866963  -1.4769039      1.299121       0.171875              88 
    196000   0.8152878     -0.064111847   -1.4776076      1.2110586      0.20117188           103 
    197000   1.0450596      0.13675619    -1.3091353      1.5487027      0.16210938            83 
    198000   1.1694403      0.06356409    -0.64248844     1.7067507      0.072265625           37 
    199000   0.85864548     0.055389498   -0.80773404     1.2636669      0.10351562            53 
    200000   0.82305862     0.03121625    -0.92667321     1.2083201      0.091796875           47 
    201000   1.0756434      0.034238952   -0.5835752      1.5791361      0.091796875           47 
    202000   0.92843098     0.061734443   -1.0175941      1.3718607      0.13085938            67 
    203000   0.84828302     0.038503505   -1.0781438      1.2570941      0.16210938            83 
    204000   1.0725474      0.042326859   -1.0379016      1.5848088      0.13085938            67 
    205000   0.83745073     0.050851656   -1.0190576      1.2282611      0.087890625           45 
    206000   0.8871559      0.055270481   -0.97286673     1.3069707      0.109375              56 
    207000   0.81890262     0.030163696   -0.47125318     1.2010572      0.087890625           45 
    208000   1.0582188      0.026832584   -0.76359833     1.5579332      0.10546875            54 
    209000   1.0592952      0.10141442    -0.71215373     1.557787       0.099609375           51 
    210000   0.98167403     0.089366756   -0.90125372     1.4495031      0.125                 64 
    211000   0.98881129     0.058504782   -1.1344308      1.4614049      0.1328125             68 
    212000   0.8931993      0.036055361   -0.82715738     1.313003       0.09765625            50 
    213000   1.0691782      0.069786792   -0.82898125     1.5770379      0.1171875             60 
    214000   1.1642907      0.078315774   -1.0413887      1.7182677      0.12109375            62 
    215000   0.96165955     0.060298522   -0.70065044     1.4147491      0.1015625             52 
    216000   1.1959965      0.084500569   -1.0925739      1.7663949      0.12695312            65 
    217000   0.88297534     0.023339378   -0.81828258     1.2984931      0.099609375           51 
    218000   0.86280778     0.0052944119  -1.1783226      1.2789856      0.16601562            85 
    219000   1.1803641      0.086897014   -0.70226638     1.7312007      0.087890625           45 
    220000   0.99715026     0.03670255    -0.58387736     1.4592443      0.080078125           41 
    221000   0.95754285     0.11286592    -1.3944292      1.4171634      0.14648438            75 
    222000   0.94305386     0.026845497   -0.86393761     1.3888611      0.10742188            55 
    223000   1.1846675      0.11619772    -0.95669369     1.7526588      0.14257812            73 
    224000   1.0631623      0.076492665   -1.5335687      1.5791086      0.19921875           102 
    225000   1.0721731      0.067931248   -1.0898305      1.5859227      0.140625              72 
    226000   0.95106062     0.045533442   -0.72898086     1.4001726      0.10546875            54 
    227000   1.0027212      0.074622448   -0.58930846     1.4713844      0.08984375            46 
    228000   0.91017963     0.068437169   -1.226822       1.3473054      0.1484375             76 
    229000   0.68973269     0.046499386   -0.59056454     1.0110854      0.0859375             44 
    230000   0.91161243     0.091368491   -0.6894846      1.3442421      0.11523438            59 
    231000   1.0369036     -0.017036368   -1.4763762      1.5376809      0.171875              88 
    232000   1.245853       0.036376581   -1.1269158      1.8395798      0.125                 64 
    233000   1.3870499      0.044966067   -1.1895998      2.0545676      0.15625               80 
    234000   1.0218         0.036980873   -1.0197578      1.5062741      0.11328125            58 
    235000   0.9408868      0.052940423   -0.72683998     1.3792545      0.0859375             44 
    236000   1.1341206      0.017816431   -0.79324166     1.6606766      0.08203125            42 
    237000   0.93778215     0.020795179   -1.1613881      1.3810973      0.10742188            55 
    238000   1.0637532      0.005142265   -1.1402548      1.5737719      0.14257812            73 
    239000   0.99670416     0.049232929   -1.46538        1.4788056      0.1796875             92 
    240000   1.0729375      0.067609271   -1.1432924      1.5834481      0.12109375            62 
    241000   0.82659178     0.014875463   -0.57367441     1.2034204      0.06640625            34 
    242000   0.7304958      0.035886211   -0.73827116     1.0750693      0.10351562            53 
    243000   0.82859592     0.01149383    -1.2231582      1.2277366      0.16015625            82 
    244000   1.0332437      0.062392829   -0.92261293     1.5154241      0.087890625           45 
    245000   1.0574246      0.039050905   -1.6318729      1.5715853      0.21289062           109 
    246000   1.04475        0.029144809   -1.3458632      1.5484687      0.1640625             84 
    247000   1.0447132      0.073250953   -0.93956971     1.542961       0.12695312            65 
    248000   1.024937       0.0075548818  -1.3313286      1.5210502      0.18359375            94 
    249000   1.0434528      0.054034195   -1.2844735      1.5481664      0.1796875             92 
    250000   0.98361579     0.065148822   -0.95993115     1.4426365      0.087890625           45 
    251000   0.91657753     0.088176767   -0.52954117     1.347369       0.09765625            50 
    252000   0.98914191     0.078188339   -1.8708585      1.4730387      0.27148438           139 
    253000   0.90619103     0.0023785914  -0.77388992     1.3336396      0.10351562            53 
    254000   0.916246       0.055651393   -0.97445928     1.3518384      0.11914062            61 
    255000   1.0538238      0.097815048   -0.71903532     1.5509105      0.10351562            53 
    256000   0.99297767     0.10205225    -1.0046144      1.4693386      0.14453125            74 
    257000   1.0172863      0.026454839   -0.75839391     1.4920199      0.087890625           45 
    258000   0.96334417     0.086183102   -1.1917819      1.4224379      0.125                 64 
    259000   1.0175111      0.028519773   -1.1148102      1.5012459      0.11914062            61 
    260000   1.060822       0.095268175   -1.0576961      1.5671234      0.12890625            66 
    261000   0.92560721     0.11973129    -0.84875658     1.3670507      0.12695312            65 
    262000   0.87026365     0.027051046   -1.1645732      1.2875133      0.14257812            73 
    263000   0.99038397     0.060928241   -1.388663       1.4665301      0.15234375            78 
    264000   1.0827542      0.094205932   -0.78785456     1.5966036      0.11523438            59 
    265000   1.0916401      0.056826364   -0.97867055     1.6097067      0.11523438            59 
    266000   0.86417287     0.063828788   -1.0145941      1.2777413      0.13671875            70 
    267000   1.0497611      0.058441622   -0.87557214     1.5496474      0.12304688            63 
    268000   1.025187       0.098627964   -0.84156771     1.5087658      0.10351562            53 
    269000   1.038562       0.063402643   -0.80198845     1.5309837      0.11328125            58 
    270000   1.0784884      0.10154065    -1.0298947      1.5935873      0.13085938            67 
    271000   1.138667       0.073474825   -0.9669057      1.6795339      0.1171875             60 
    272000   1.0855344      0.15411227    -0.51034794     1.5943787      0.09375               48 
    273000   1.2128949      0.076283188   -1.0966147      1.7947567      0.14453125            74 
    274000   0.81681288     0.079270961   -0.6289607      1.1938034      0.076171875           39 
    275000   1.2022764      0.081981378   -0.82667323     1.7546736      0.072265625           37 
    276000   1.154731       0.071578385   -0.77098874     1.6967477      0.095703125           49 
    277000   1.0299898      0.11239975    -0.83197097     1.5146909      0.099609375           51 
    278000   1.0351131      0.16347206    -1.0894869      1.5350257      0.171875              88 
    279000   0.87771185     0.046890109   -1.0560447      1.2963129      0.12695312            65 
    280000   1.1127514      0.12718067    -1.0491768      1.6449369      0.13476562            69 
    281000   0.98489228     0.031341036   -0.99097793     1.4522988      0.11523438            59 
    282000   0.98739198     0.093723861   -0.8222825      1.455104       0.11132812            57 
    283000   1.0038122      0.12604208    -1.0061506      1.4832448      0.13085938            67 
    284000   0.98753395     0.076230904   -0.87807704     1.4585117      0.12695312            65 
    285000   0.90703967     0.037935579   -0.79445643     1.33669        0.11132812            57 
    286000   0.93059246     0.022846102   -0.96450701     1.3759474      0.13671875            70 
    287000   0.95585807     0.089520796   -0.77462213     1.4077182      0.10742188            55 
    288000   1.041104       0.052550766   -0.79977554     1.5327364      0.10546875            54 
    289000   1.0078972      0.22729342    -1.6368128      1.4995543      0.24023438           123 
    290000   1.0341043      0.05076745    -0.80579486     1.5201333      0.09765625            50 
    291000   0.85858651     0.038597124   -0.87842527     1.2660513      0.11523438            59 
    292000   0.97265867     0.059356373   -0.87274976     1.4329347      0.109375              56 
    293000   1.0543548      0.023886756   -0.83102981     1.5485837      0.09375               48 
    294000   0.92059129     0.02794475    -0.72791837     1.3557799      0.10742188            55 
    295000   1.1680005      0.10716574    -1.1410381      1.7298236      0.15429688            79 
    296000   0.8973474      0.053357911   -0.79359483     1.3123706      0.078125              40 
    297000   1.0328252      0.052605118   -0.99177988     1.5254034      0.12695312            65 
    298000   0.90833591     0.044361822   -1.137073       1.3456828      0.15820312            81 
    299000   1.0400766      0.18439984    -0.89143011     1.5364767      0.12890625            66 
    300000   1.0456049      0.069840389   -0.89396824     1.5319327      0.083984375           43 
    301000   1.1716846      0.09905165    -0.84962273     1.7287149      0.11914062            61 
    302000   1.1038277      0.083149098   -1.1164415      1.6357928      0.16210938            83 
    303000   1.1459799      0.12607544    -1.0417917      1.6888125      0.11132812            57 
    304000   0.85055398     0.077276575   -0.87096704     1.2567887      0.13085938            67 
    305000   0.99827093    -0.0069093731  -1.623311       1.4835415      0.2109375            108 
    306000   0.83625425    -0.011060031   -1.8512689      1.2445815      0.25                 128 
    307000   1.0734921      0.088109435   -1.6155161      1.596236       0.22460938           115 
    308000   0.94517335     0.10642371    -0.66332864     1.3933159      0.11328125            58 
    309000   0.9206314      0.068139825   -0.78159732     1.3488321      0.083984375           43 
    310000   0.95834103     0.042707748   -0.54472018     1.3975807      0.0703125             36 
    311000   0.99410042     0.066257023   -0.8090911      1.4547811      0.080078125           41 
    312000   1.1713279      0.104552      -0.49784265     1.7203878      0.09375               48 
    313000   1.0277047     -0.0001447054  -1.5243784      1.5240393      0.171875              88 
    314000   0.98670361     0.023165932   -0.53936763     1.4456355      0.083984375           43 
    315000   0.90686339     0.018521767   -0.81229029     1.3355625      0.10742188            55 
    316000   0.7866995      0.058096917   -1.0387366      1.1618946      0.12695312            65 
    317000   1.1009385      0.0582654     -0.82405191     1.6208261      0.10546875            54 
    318000   1.0017928      0.087108982   -0.69749111     1.4726353      0.09765625            50 
    319000   1.1755388      0.051420064   -0.9091994      1.7273224      0.095703125           49 
    320000   0.98369175     0.054440039   -1.2513802      1.4568599      0.15429688            79 
    321000   1.0363013      0.078382202   -0.56925834     1.5183018      0.083984375           43 
    322000   1.0481352      0.035471069   -1.3518501      1.5547339      0.17578125            90 
    323000   1.0014732      0.071871287   -0.82893319     1.4783653      0.12304688            63 
    324000   1.2890765      0.097781564   -0.7210396      1.8964299      0.1015625             52 
    325000   1.1173876      0.023239137   -1.0818445      1.6481467      0.1171875             60 
    326000   0.9203635      0.019361968   -1.3682036      1.36307        0.15429688            79 
    327000   0.90266456     0.062161167   -0.74951706     1.3263643      0.095703125           49 
    328000   1.0154897      0.058271683   -0.89387839     1.489385       0.087890625           45 
    329000   0.9960481      0.0085093765  -1.0952979      1.4664042      0.10546875            54 
    330000   1.1343636      0.044197883   -1.1576674      1.6812888      0.1640625             84 
    331000   0.96123122     0.069261024   -0.91646037     1.415146       0.10546875            54 
    332000   1.1098737      0.034812845   -0.87829567     1.6350818      0.109375              56 
    333000   0.98257735     0.11217683    -0.67061631     1.4470685      0.10742188            55 
    334000   1.2205678      0.059417343   -1.1167062      1.8064403      0.14648438            75 
    335000   1.0318854      0.047503575   -0.54810129     1.5134319      0.087890625           45 
    336000   1.1425854      0.11497938    -0.96827786     1.6827167      0.10742188            55 
    337000   0.92468539     0.11497945    -0.87168164     1.3631138      0.11328125            58 
    338000   0.9294244      0.07556711    -0.97160088     1.3745009      0.13867188            71 
    339000   0.92986454     0.041118615   -0.88645283     1.3726572      0.12304688            63 
    340000   1.0908201      0.1478032     -0.96308464     1.6155184      0.15429688            79 
    341000   1.0816331      0.095161814   -1.2458326      1.6031348      0.1640625             84 
    342000   0.99020859     0.13964717    -0.86189496     1.4605577      0.1171875             60 
    343000   1.0198065      0.041168445   -0.85644029     1.5023936      0.109375              56 
    344000   0.87396359    -0.054577781   -1.2594768      1.2922176      0.13671875            70 
    345000   1.0510731      0.075811663   -1.1115011      1.5530782      0.13085938            67 
    346000   0.8676422      0.019832437   -0.70638831     1.2778003      0.10742188            55 
    347000   0.77290289     0.029003769   -0.92374101     1.1366219      0.099609375           51 
    348000   0.889916       0.049270929   -1.2319869      1.3193522      0.16796875            86 
    349000   1.0556564      0.11494636    -1.2652667      1.5639355      0.15820312            81 
    350000   1.125558       0.053711278   -1.0397153      1.6619568      0.125                 64 
    351000   0.86975335     0.074236213   -0.85034352     1.2825176      0.11523438            59 
    352000   0.97749187     0.079322699   -1.0622843      1.4446755      0.1328125             68 
    353000   0.94719373     0.02579186    -1.2084043      1.3995848      0.13085938            67 
    354000   0.80312225     0.13912204    -0.71594956     1.1846053      0.1171875             60 
    355000   1.1410809      0.065385653   -0.67171931     1.6787056      0.1015625             52 
    356000   1.034021      -0.0077863558  -1.4823863      1.5337978      0.17578125            90 
    357000   0.93830737     0.072089712   -0.80232669     1.3809052      0.10351562            53 
    358000   0.95064483     0.085813052   -1.2958034      1.4076856      0.15234375            78 
    359000   1.0334156      0.092995327   -0.83156759     1.5247115      0.11914062            61 
    360000   1.1413713      0.066407597   -0.98162261     1.6844431      0.12109375            62 
    361000   0.84730972     0.034260999   -0.84728263     1.2490514      0.11328125            58 
    362000   1.0809746      0.085666577   -1.0067374      1.5919808      0.10742188            55 
    363000   1.0190903      0.03303813    -0.50534126     1.4946658      0.087890625           45 
    364000   1.1135211      0.052328967   -0.8604647      1.6433416      0.12109375            62 
    365000   1.1886316      0.0055796296  -0.97222631     1.7550888      0.125                 64 
    366000   1.0572418      0.0451167     -0.88233361     1.5610836      0.125                 64 
    367000   1.106102       0.068861927   -1.0636398      1.6315005      0.1171875             60 
    368000   1.0372887      0.083632228   -1.7081928      1.5428579      0.23242188           119 
    369000   1.011102       0.073722951   -0.59733516     1.4796615      0.080078125           41 
    370000   0.903095       0.034391819   -0.72332692     1.3264208      0.09375               48 
    371000   0.8783098      0.049232129   -0.69942007     1.2900175      0.09375               48 
    372000   0.76533143     0.020262431   -0.50157795     1.1161083      0.0703125             36 
    373000   1.1887646      0.087055365   -0.9657296      1.7534277      0.1171875             60 
    374000   0.87928471     0.10472777    -1.1376083      1.2998122      0.13476562            69 
    375000   0.95056052     0.050297326   -1.1254916      1.4032084      0.12304688            63 
    376000   1.1129778      0.069042089   -0.75952552     1.6401779      0.11132812            57 
    377000   0.99204114     0.034253675   -0.97126756     1.4651685      0.12695312            65 
    378000   1.0478705      0.044586486   -0.89587121     1.5437378      0.109375              56 
    379000   1.114801       0.093079048   -0.84037991     1.6380749      0.095703125           49 
    380000   1.1534713      0.1654784     -0.96309648     1.7047628      0.1328125             68 
    381000   1.1704092      0.1232937     -0.92719039     1.7224891      0.10351562            53 
    382000   0.80346578     0.041828432   -0.97435544     1.1897474      0.15234375            78 
    383000   1.004957       0.058344995   -1.3574855      1.488354       0.15429688            79 
    384000   1.1790987      0.043484514   -0.72024507     1.7293447      0.087890625           45 
    385000   0.93361123     0.073597321   -0.45477388     1.3706207      0.091796875           47 
    386000   0.92562682     0.027415672   -1.1913921      1.368022       0.1328125             68 
    387000   1.1045609      0.12215189    -1.1189638      1.6355997      0.15234375            78 
    388000   0.99980998     0.049310291   -1.2414343      1.4820713      0.16601562            85 
    389000   1.0147141      0.066758393   -1.0578526      1.5012209      0.14257812            73 
    390000   1.0412985      0.064930166   -0.89135605     1.5389779      0.1328125             68 
    391000   0.94658217    -0.0022314844  -1.8336224      1.4088665      0.25195312           129 
    392000   0.89343108     0.026118624   -1.7797657      1.3286924      0.22851562           117 
    393000   0.76071801     0.019725019   -1.4203731      1.128674       0.1796875             92 
    394000   1.0483433      0.067630442   -0.60724992     1.5404228      0.095703125           49 
    395000   0.99908915    -0.010543812   -1.0958738      1.4791709      0.15039062            77 
    396000   1.002273       0.067267779   -1.0012089      1.4819322      0.13671875            70 
    397000   1.0881385      0.092437779   -1.3740241      1.6115469      0.15429688            79 
    398000   0.82821682     0.029813309   -0.87709625     1.2243205      0.13476562            69 
    399000   1.0549643      0.055654935   -1.0170273      1.5573282      0.12304688            63 
    400000   0.9994606      0.10738243    -0.79946457     1.474614       0.11914062            61 
    401000   0.98815257     0.10031822    -0.67610985     1.4506921      0.091796875           47 
    402000   1.2275496      0.038021694   -0.56796945     1.7887151      0.068359375           35 
    403000   0.91524207     0.083146352   -0.81176202     1.3464619      0.1015625             52 
    404000   0.91711675     0.051337838   -1.3413965      1.3594907      0.16601562            85 
    405000   1.0325913      0.094382515   -0.62845845     1.5185167      0.099609375           51 
    406000   1.0375528      0.052902913   -1.0067522      1.5316255      0.12304688            63 
    407000   1.0487564      0.013584147   -1.2444895      1.5550526      0.16992188            87 
    408000   0.99665809     0.019773567   -0.66374193     1.4617652      0.087890625           45 
    409000   1.204997       0.10961301    -0.62198842     1.7698393      0.09375               48 
    410000   1.0788838      0.054974756   -0.90325983     1.5788544      0.080078125           41 
    411000   1.142088       0.12158514    -1.7906689      1.6949072      0.18359375            94 
    412000   0.99276887     0.083017813   -1.3548442      1.4739579      0.19140625            98 
    413000   0.8911206      0.0032986821  -0.8092178      1.3123776      0.10742188            55 
    414000   1.0508147      0.043088225   -1.166306       1.548569       0.11132812            57 
    415000   1.0906832      0.10262248    -1.3607935      1.6150501      0.15234375            78 
    416000   1.0081101      0.15845109    -1.5483924      1.4974839      0.20117188           103 
    417000   0.87008496     0.015617562   -2.1221963      1.2975395      0.3359375            172 
    418000   0.9908475      0.091140059   -2.1377798      1.4774768      0.33007812           169 
    419000   0.97650852     0.13743405    -2.1133734      1.4554921      0.30859375           158 
    420000   0.99544467     0.053220348   -2.6883944      1.4861238      0.4140625            212 
    421000   1.0296621     -0.013632045   -2.7997339      1.5378071      0.45117188           231 
    422000   1.0191901      0.0067404448  -2.2797561      1.5195198      0.32226562           165 
    423000   1.004499      -0.034905467   -2.5778896      1.4985596      0.359375             184 
    424000   1.0091664      0.034015471   -1.9286789      1.5025366      0.26367188           135 
    425000   0.95726561     0.044389482   -0.77332475     1.4059839      0.09375               48 
    426000   0.83654827     0.02289499    -0.59325978     1.2199662      0.0703125             36 
    427000   0.99018393     0.073662533   -1.0919204      1.4624255      0.12695312            65 
    428000   1.0704831      0.06518728    -1.000076       1.5785089      0.11523438            59 
    429000   0.92862445     0.09719221    -1.1063567      1.3738554      0.14257812            73 
    430000   0.80533832     0.060228372   -0.90062638     1.1864359      0.109375              56 
    431000   0.85421289     0.015171185   -1.0097289      1.2606529      0.12109375            62 
    432000   1.1043207      0.23044906    -1.0633443      1.6386694      0.18164062            93 
    433000   0.94721395     0.060521384   -1.011666       1.4032799      0.15820312            81 
    434000   1.0757998      0.15866574    -1.2814757      1.5980328      0.20117188           103 
    435000   1.2188715      0.06190456    -1.172101       1.8036004      0.14453125            74 
    436000   1.0739817      0.057923837   -0.80090646     1.5793849      0.099609375           51 
    437000   0.89749614     0.098752424   -1.1851698      1.3298266      0.16015625            82 
    438000   0.99946858     0.11768906    -1.112678       1.4802256      0.15429688            79 
    439000   0.85788361     0.042217662   -1.0040287      1.2673281      0.12890625            66 
    440000   0.95783698     0.066353975   -0.93329362     1.4149864      0.12890625            66 
    441000   0.98571341     0.0061558984  -1.0087472      1.4547222      0.12109375            62 
    442000   1.0336063      0.044159484   -0.63031162     1.5211564      0.10351562            53 
    443000   0.92073091     0.062125169   -0.71399909     1.3564339      0.109375              56 
    444000   0.99151386     0.034760533   -1.5310164      1.4686799      0.15625               80 
    445000   0.95837565     0.04794741    -0.75368566     1.4088122      0.09765625            50 
    446000   0.95936502     0.060543426   -0.81979818     1.4150634      0.1171875             60 
    447000   0.93659807     0.012930222   -1.0224611      1.3829456      0.125                 64 
    448000   0.77422817     0.011899049   -0.40755546     1.1261501      0.064453125           33 
    449000   1.3334209      0.066276436   -0.75143166     1.9556841      0.087890625           45 
    450000   1.1195667      0.048011798   -0.47347616     1.6351567      0.07421875            38 
    451000   1.1184674      0.059941783   -0.98368994     1.6518903      0.12695312            65 
    452000   1.0254428      0.062161795   -0.91817141     1.5137489      0.12304688            63 
    453000   0.90303308     0.12010688    -0.97864134     1.3362449      0.14453125            74 
    454000   0.88428262     0.063873588   -0.96981572     1.3066266      0.13085938            67 
    455000   0.84389984     0.032963249   -0.53189671     1.2357105      0.08203125            42 
    456000   1.0460438      0.097029796   -1.0837089      1.5478621      0.14453125            74 
    457000   1.1324333      0.039316768   -1.4840048      1.6823167      0.203125             104 
    458000   1.1021581      0.14064972    -1.0175429      1.6265721      0.12109375            62 
    459000   0.98916931     0.023512193   -1.0395277      1.4586056      0.11523438            59 
    460000   1.2646699      0.042072107   -0.39328314     1.8358111      0.060546875           31 
    461000   1.1201082      0.085174278   -0.89302883     1.6543136      0.12695312            65 
    462000   0.82921465     0.025038068   -1.2372168      1.2243873      0.125                 64 
    463000   1.0034826      0.13287909    -0.86453572     1.4797116      0.11523438            59 
    464000   0.83850185     0.048924003   -0.84819711     1.2356869      0.11132812            57 
    465000   1.1506193      0.071469627   -1.0533329      1.7032193      0.1484375             76 
    466000   0.93988516     0.055416857   -0.29036735     1.3657706      0.0625                32 
    467000   1.0075171      0.044958756   -0.7500911      1.4692958      0.0703125             36 
    468000   1.1136463      0.059529534   -0.9710686      1.6426283      0.1171875             60 
    469000   1.0367908      0.076600877   -0.85038673     1.5292664      0.1171875             60 
    470000   1.1262964      0.0674232     -0.87799781     1.66081        0.11523438            59 
    471000   0.95474027     0.026563476   -1.2695516      1.4124925      0.14257812            73 
    472000   1.1607951      0.058615368   -1.0597129      1.7163184      0.13671875            70 
    473000   0.90802718     0.098063681   -1.0445456      1.3433827      0.14257812            73 
    474000   1.095223       0.068094156   -1.2559249      1.6247813      0.17773438            91 
    475000   1.1120127      0.07464362    -0.46837896     1.6216852      0.0703125             36 
    476000   0.88961051     0.10966944    -1.1018777      1.3166235      0.14648438            75 
    477000   1.285128       0.08490611    -0.96818098     1.8898941      0.099609375           51 
    478000   0.96929182     0.097586516   -1.6088525      1.4342899      0.14453125            74 
    479000   0.98667388     0.038809896   -1.0488775      1.4591656      0.13867188            71 
    480000   0.92009592     0.011323448   -1.2361357      1.3595447      0.13085938            67 
    481000   0.89445009     0.032216317   -0.9402955      1.3177167      0.109375              56 
    482000   1.0776291      0.096392017   -1.0262975      1.5907858      0.12304688            63 
    483000   1.0027754      0.060787287   -1.0427617      1.4843715      0.1484375             76 
    484000   0.96171697     0.029445862   -0.56625894     1.3960408      0.060546875           31 
    485000   1.119915       0.091003165   -0.90313529     1.6523335      0.11914062            61 
    486000   0.93589648     0.017252118   -0.57913541     1.3585594      0.060546875           31 
    487000   1.1241887      0.079128689   -0.69750786     1.6504047      0.091796875           47 
    488000   1.0857038      0.025172339   -0.8745732      1.5994744      0.109375              56 
    489000   1.0680486      0.067835927   -0.78194575     1.5693775      0.095703125           49 
    490000   1.0836402      0.08150092    -1.0298763      1.5974351      0.11328125            58 
    491000   0.93308872     0.019646266   -0.76674066     1.3670835      0.083984375           43 
    492000   0.96047498     0.050461935   -1.2020977      1.4241526      0.16992188            87 
    493000   0.79521458     0.10579681    -0.83084421     1.1718952      0.11132812            57 
    494000   0.9014014      0.04538986    -0.94867401     1.3319215      0.13085938            67 
    495000   1.1963811      0.13241309    -0.93851029     1.769647       0.140625              72 
    496000   1.0456479      0.072479807   -0.92434817     1.5472763      0.14453125            74 
    497000   1.2020095      0.061961882   -1.1349923      1.7734567      0.11914062            61 
    498000   1.0732671      0.075953451   -1.2207823      1.5889928      0.15039062            77 
    499000   1.0532827      0.12957333    -1.4212281      1.5613367      0.16601562            85 
    500000   0.94061503     0.041680058   -0.74180291     1.3706105      0.068359375           35 
    501000   1.0329011      0.065195817   -0.81115933     1.5247588      0.12304688            63 
    502000   0.93366238     0.056770133   -0.91430377     1.3740692      0.10351562            53 
    503000   1.0255999      0.066740877   -0.82899832     1.5082352      0.099609375           51 
    504000   1.0273261      0.072302661   -0.56258496     1.5082022      0.091796875           47 
    505000   0.85042455     0.02842211    -0.94870083     1.2528576      0.109375              56 
    506000   0.93874777     0.02809557    -1.2157515      1.3857705      0.12304688            63 
    507000   1.0060756      0.11188702    -0.93706761     1.4806396      0.10351562            53 
    508000   1.1918996      0.1241905     -0.96971645     1.7527935      0.099609375           51 
    509000   1.0445949      0.06842085    -0.71718396     1.5384034      0.10742188            55 
    510000   0.96215043     0.014738434   -0.53869327     1.4143611      0.09765625            50 
    511000   0.98065769     0.077275177   -1.1314084      1.4518828      0.15039062            77 
    512000   0.84762145     0.054025944   -1.3448109      1.256818       0.16992188            87 
    513000   1.1284185      0.075316102   -0.53630743     1.6468811      0.072265625           37 
    514000   0.99181907     0.035705972   -1.1452007      1.461162       0.109375              56 
    515000   1.0335107      0.049698281   -0.75247649     1.5172817      0.091796875           47 
    516000   0.97532062     0.032420872   -1.3680512      1.4463561      0.171875              88 
    517000   0.93200182     0.040661698   -1.553846       1.3852936      0.21484375           110 
    518000   1.0116711      0.095742474   -1.3833891      1.4982977      0.15429688            79 
    519000   0.91230085     0.10929421    -1.194748       1.3499587      0.14453125            74 
    520000   1.007067       0.10240621    -1.6914116      1.4983191      0.24023438           123 
    521000   1.1258916      0.062023219   -1.0682882      1.6624494      0.125                 64 
    522000   0.86348586     0.11547978    -1.7511577      1.2830097      0.20703125           106 
    523000   1.1407358     -0.058713868   -1.7820747      1.6966028      0.23046875           118 
    524000   1.0848919      0.14410288    -1.6447476      1.6113835      0.19921875           102 
    525000   1.0311036      0.1050839     -0.99233209     1.5174732      0.10351562            53 
    526000   1.1789393      0.15443678    -0.88552039     1.7373842      0.11132812            57 
    527000   0.91505052     0.015928908   -0.78169409     1.3439805      0.09375               48 
    528000   0.89604926     0.056291586   -1.1371219      1.3245946      0.13476562            69 
    529000   1.3049785      0.07132175    -0.58936505     1.8981505      0.064453125           33 
    530000   0.99778295     0.053815127   -0.73490088     1.463415       0.087890625           45 
    531000   1.0836846      0.081597975   -0.86146344     1.600128       0.125                 64 
    532000   0.98081621     0.06537116    -1.1308911      1.4539158      0.16601562            85 
    533000   0.88620585     0.08571894    -0.89847345     1.3115847      0.14648438            75 
    534000   1.1453072      0.053839205   -1.1848101      1.6975089      0.1640625             84 
    535000   1.0014323      0.001781538   -1.2985919      1.4852704      0.17382812            89 
    536000   1.243595       0.054371693   -0.561931       1.8135761      0.0703125             36 
    537000   1.1175567      0.019647725   -0.88092803     1.6406684      0.091796875           47 
    538000   1.2576655      0.098025271   -1.2595418      1.8650607      0.171875              88 
    539000   1.0322398      0.049114162   -0.94945713     1.5207105      0.109375              56 
    540000   0.9759189      0.077936625   -1.0826332      1.4464512      0.1640625             84 
    541000   0.99785952     0.08461936    -0.8876875      1.47142        0.11523438            59 
    542000   0.77753386     0.0090139327  -0.66419929     1.1378544      0.080078125           41 
    543000   0.93352732     0.05561405    -0.54921069     1.3624453      0.072265625           37 
    544000   1.128936       0.17030506    -1.1551199      1.674377       0.17382812            89 
    545000   1.0782994      0.064948044   -1.0846301      1.5913612      0.12109375            62 
    546000   1.010479       0.11362092    -0.94400641     1.4957749      0.1484375             76 
    547000   0.96998082     0.068626305   -1.1650461      1.4353095      0.14453125            74 
    548000   0.93094748     0.084202303   -1.2158722      1.3775507      0.14453125            74 
    549000   0.8962173      0.09191485    -1.2032092      1.3273092      0.15429688            79 
    550000   0.96854942     0.10523128    -1.1437367      1.434434       0.15429688            79 
    551000   1.046679       0.1164979     -1.2397074      1.5446957      0.12109375            62 
    552000   1.0268544      0.10655992    -1.346626       1.5247232      0.19335938            99 
    553000   0.90168269     0.011321059   -0.83044511     1.3249215      0.095703125           49 
    554000   1.0049554      0.065666749   -1.0227545      1.4855862      0.13476562            69 
    555000   1.044643       0.13903598    -0.78000135     1.538983       0.109375              56 
    556000   0.98025818     0.074937661   -1.1088647      1.4474125      0.125                 64 
    557000   0.94991328     0.055514854   -0.75912136     1.4011221      0.1171875             60 
    558000   0.87550036     0.017116221   -1.3537457      1.2955039      0.14453125            74 
    559000   1.1482723      0.052883345   -1.0542078      1.6984861      0.140625              72 
    560000   1.0263621      0.06120254    -1.1455083      1.5178595      0.13867188            71 
    561000   1.0332517      0.041460879   -0.73327415     1.5194878      0.099609375           51 
    562000   0.96845267     0.076451527   -0.96237378     1.4299809      0.125                 64 
    563000   1.0466907      0.098641118   -1.0227928      1.5466026      0.13085938            67 
    564000   1.0276396      0.0022868317  -1.0553234      1.5148825      0.11328125            58 
    565000   0.85622582     0.07348475    -0.69129538     1.2564183      0.08984375            46 
    566000   1.1772378      0.16254365    -0.71977761     1.7364258      0.1171875             60 
    567000   1.1439259      0.067003714   -1.0464256      1.6868059      0.11523438            59 
    568000   1.2016877      0.035317427   -0.97670267     1.7714534      0.11328125            58 
    569000   0.941465       0.056889842   -0.864642       1.3801021      0.0859375             44 
    570000   1.1604018      0.10248623    -1.1293081      1.720125       0.16601562            85 
    571000   0.971622       0.043501228   -0.51042815     1.4157921      0.068359375           35 
    572000   0.94013471     0.07419669    -1.0747732      1.3894638      0.1328125             68 
    573000   0.93403136     0.015136738   -1.0687212      1.381314       0.13867188            71 
    574000   0.9887133      0.037431889   -1.803987       1.4711097      0.2421875            124 
    575000   1.0407755      0.039741995   -0.6875905      1.5279471      0.091796875           47 
    576000   1.0014087      0.018585335   -0.66345829     1.4645603      0.078125              40 
    577000   1.132406       0.11182198    -0.69334866     1.6671533      0.10546875            54 
    578000   1.0305076      0.088212166   -1.0185815      1.5216088      0.125                 64 
    579000   1.0393083      0.033929091   -1.2062214      1.5373102      0.140625              72 
    580000   0.95021703     0.060596679   -0.84742624     1.397378       0.099609375           51 
    581000   0.88028441     0.048006419   -0.652664       1.2934791      0.095703125           49 
    582000   0.93123855     0.080977132   -1.1566776      1.378233       0.14648438            75 
    583000   1.088265       0.11610195    -1.5823718      1.6155687      0.18945312            97 
    584000   0.97410478     0.047464591   -0.41795478     1.4255192      0.080078125           41 
    585000   1.0301358      0.15812526    -1.0395833      1.5246009      0.14648438            75 
    586000   0.85061681     0.043939412   -0.96839308     1.256593       0.12890625            66 
    587000   0.83127973     0.01600661    -0.74236358     1.2250438      0.11132812            57 
    588000   1.0164543      0.024935011   -1.2715886      1.5015802      0.12890625            66 
    589000   1.012674       0.047615391   -0.78106157     1.4866916      0.091796875           47 
    590000   0.7744548      0.010961002   -0.90595074     1.1409379      0.109375              56 
    591000   0.98667794     0.038477422   -1.1059043      1.4565246      0.12304688            63 
    592000   0.98224093     0.099729112   -0.82376709     1.4483892      0.11523438            59 
    593000   1.0927529      0.13985912    -0.66842476     1.6027043      0.087890625           45 
    594000   0.99187388     0.08163656    -0.83608848     1.4586381      0.099609375           51 
    595000   0.96243887     0.020803445   -0.82412728     1.4135821      0.09375               48 
    596000   1.0635356      0.023901275   -0.78162724     1.5662979      0.10742188            55 
    597000   1.0582248      0.12755       -0.67051702     1.5594892      0.11132812            57 
    598000   0.8385341      0.0079594022  -0.96595559     1.2368378      0.1171875             60 
    599000   1.0611303      0.068792046   -0.69884348     1.5642525      0.11328125            58 
    600000   0.92214097     0.037831987   -0.60723027     1.3477445      0.076171875           39 
    601000   0.9791835      0.042557627   -0.60302968     1.4388002      0.095703125           49 
    602000   0.95859229     0.082075864   -1.5813862      1.4258053      0.23242188           119 
    603000   0.93931343     0.050342997   -1.2511691      1.392394       0.16601562            85 
    604000   1.1045622      0.095223018   -0.6881417      1.6223257      0.09375               48 
    605000   1.08592        0.025733175   -0.67696336     1.5900972      0.08203125            42 
    606000   0.98792643     0.03751465    -0.69260682     1.4496746      0.08984375            46 
    607000   0.95019546     0.06065068    -1.731964       1.4127906      0.22265625           114 
    608000   0.98131237     0.11249866    -1.4617842      1.4518046      0.14257812            73 
    609000   0.99529971     0.10829889    -1.016288       1.4724982      0.14257812            73 
    610000   1.1390767      0.056966793   -0.62329143     1.6648044      0.076171875           39 
    611000   1.033021      -0.021066079   -1.4477014      1.5283051      0.14257812            73 
    612000   0.90191697     0.02726255    -0.54312058     1.3142219      0.068359375           35 
    613000   1.0145462      0.12237292    -0.87109299     1.4964557      0.1171875             60 
    614000   0.98521081     0.11854213    -0.88740068     1.4543588      0.12304688            63 
    615000   0.93693179     0.0497299     -1.2378386      1.3886668      0.1640625             84 
    616000   0.98514623     0.014128552   -0.92051321     1.4508517      0.10742188            55 
    617000   1.0471666      0.26260768    -1.5739524      1.5582837      0.24609375           126 
    618000   1.0816034      0.066048019   -1.3128536      1.6039687      0.171875              88 
    619000   0.8555532      0.066852957   -1.4423339      1.2687465      0.171875              88 
    620000   0.79441846     0.038624978   -0.55237078     1.1645452      0.0859375             44 
    621000   1.2094956      0.064638651   -0.65610013     1.7677244      0.076171875           39 
    622000   1.1586733      0.023292973   -0.64342859     1.6956195      0.080078125           41 
    623000   1.0734076      0.064094416   -0.55413411     1.5751089      0.08984375            46 
    624000   0.90846855     0.062961874   -0.57309945     1.3237685      0.068359375           35 
    625000   0.85145513     0.030011028   -1.0426472      1.256583       0.12109375            62 
    626000   0.96659862     0.087690955   -0.97569694     1.4279298      0.12890625            66 
    627000   0.93529345     0.099772141   -0.8231914      1.3759606      0.1015625             52 
    628000   1.1302231      0.13171366    -1.0754328      1.6717884      0.140625              72 
    629000   0.99506063     0.083790701   -1.0912714      1.4732066      0.15039062            77 
    630000   0.91199987     0.034121884   -0.80612932     1.3421885      0.10351562            53 
    631000   0.92209834     0.075708314   -1.2935806      1.3615358      0.125                 64 
    632000   0.76647171     0.062089813   -0.72810413     1.1235778      0.0859375             44 
    633000   0.9947313      0.062813434   -0.49681943     1.45177        0.072265625           37 
    634000   0.85180358     0.054536964   -0.62721194     1.2521513      0.09765625            50 
    635000   1.1410454      0.088263432   -1.1145564      1.6887471      0.14648438            75 
    636000   1.1363273      0.070402089   -0.909858       1.6808174      0.140625              72 
    637000   1.0053459      0.12752383    -1.1126321      1.4900663      0.1640625             84 
    638000   1.0774307      0.024830343   -0.78321964     1.5844569      0.099609375           51 
    639000   0.93655739     0.10108476    -2.0231733      1.39627        0.3203125            164 
    640000   0.91109497    -0.07743319    -2.4269123      1.3592552      0.36132812           185 
    641000   0.87183991     0.30504294    -2.7216117      1.302123       0.453125             232 
    642000   0.98267995    -0.12935401    -2.8764349      1.4676111      0.44921875           230 
    643000   1.0533247     -0.15046415    -3.0531632      1.5737421      0.49414062           253 
    644000   0.91407436    -0.039025919   -2.93738        1.3652269      0.45507812           233 
    645000   0.9988166     -0.046348596   -3.0114719      1.4921592      0.48242188           247 
    646000   1.0451517     -0.019413098   -3.0146226      1.5613286      0.47851562           245 
    647000   0.97409635     0.17767191    -2.9978217      1.4554146      0.49804688           255 
    648000   0.96459864     0.046737037   -3.3416102      1.4418565      0.56054688           287 
    649000   1.0953981      0.11446371    -3.2326361      1.6371439      0.5390625            276 
    650000   1.0272505      0.23467314    -3.2099058      1.5353922      0.54882812           281 
    651000   0.97718219    -0.1454701     -3.0502058      1.460092       0.50390625           258 
    652000   1.0219529     -0.089455819   -3.2011817      1.5272936      0.53125              272 
    653000   0.9941902      0.070131166   -3.4497871      1.4861956      0.57226562           293 
    654000   1.0345452     -0.26505338    -3.2839922      1.5461952      0.5390625            276 
    655000   1.0895843      0.1221824     -3.1888901      1.6283898      0.53320312           273 
    656000   1.0817615     -0.0073497637  -3.1021988      1.6163772      0.50585938           259 
    657000   0.98540735     0.26092739    -3.1160776      1.4725957      0.5234375            268 
    658000   1.0265351     -0.12307399    -3.1639216      1.5340784      0.52539062           269 
    659000   1.0621586      0.16685183    -3.485864       1.5879448      0.58789062           301 
    660000   1.010861       0.19553191    -3.2698777      1.5108568      0.54492188           279 
    661000   0.90968322    -0.047179862   -3.3170224      1.359737       0.55664062           285 
    662000   1.0244723      0.32979624    -3.4611922      1.53162        0.58984375           302 
    663000   0.93851493     0.060950468   -3.4321532      1.4028501      0.55859375           286 
    664000   1.0120652     -0.083008458   -3.2794116      1.5126761      0.546875             280 
    665000   1.0227609      0.024463224   -3.3998158      1.5287959      0.56054688           287 
    666000   0.98401968    -0.13371017    -3.360601       1.4707954      0.55078125           282 
    667000   1.0018442      0.12823384    -3.1688339      1.4971798      0.52539062           269 
    668000   0.93998955     0.072716421   -3.1353545      1.4047622      0.52734375           270 
    669000   0.96751418     0.077540707   -3.0435459      1.4457531      0.51367188           263 
    670000   0.96331338     0.033640863   -2.8733339      1.4386876      0.44921875           230 
    671000   0.94433523     0.21070124    -2.8601032      1.4105512      0.46484375           238 
    672000   1.0420966      0.23087219    -3.0085005      1.5572013      0.51367188           263 
    673000   0.99462515     0.28888733    -3.390408       1.4869144      0.58007812           297 
    674000   1.0068552      0.28404929    -3.3304135      1.5050928      0.56835938           291 
    675000   0.94600968    -0.10031872    -3.4468293      1.4141382      0.56835938           291 
    676000   1.0255978      0.16630546    -3.2998248      1.5330176      0.55859375           286 
    677000   1.0287648      0.047430594   -3.309386       1.537675       0.55078125           282 
    678000   1.0282193     -0.083523755   -3.2792854      1.5365954      0.52539062           269 
    679000   0.86041026     0.047193398   -3.2292453      1.2859561      0.54101562           277 
    680000   1.0981341      0.20004838    -3.4301606      1.6415407      0.56835938           291 
    681000   1.0075134      0.030892288   -3.0302099      1.5053896      0.50195312           257 
    682000   0.99540223     0.15810876    -3.4685901      1.4880591      0.578125             296 
    683000   1.003794       0.18982702    -3.3186584      1.5002553      0.54101562           277 
    684000   1.0293336     -0.026738319   -3.138538       1.5381959      0.51953125           266 
    685000   0.95602274    -0.18694477    -3.2390658      1.4287812      0.53320312           273 
    686000   1.0266607      0.14093991    -2.8472442      1.5333532      0.453125             232 
    687000   1.0736262      0.019585358   -2.5140775      1.6027339      0.40820312           209 
    688000   1.0336922      0.1265321     -2.8184927      1.5436471      0.43945312           225 
    689000   1.0294521     -0.20115906    -2.877325       1.53769        0.46484375           238 
    690000   0.9030343     -0.060790645   -2.5682071      1.3473079      0.36523438           187 
    691000   0.83599106     0.060773548   -1.5518954      1.2392338      0.16601562            85 
    692000   1.1320566      0.10895206    -1.1341547      1.6741682      0.13867188            71 
    693000   0.94433945     0.042104997   -1.1535951      1.399646       0.1640625             84 
    694000   0.89194        0.1549161     -0.74367662     1.315977       0.11914062            61 
    695000   0.92407682     0.055580611   -0.72335817     1.3599621      0.10351562            53 
    696000   1.2369589      0.082055453   -0.86108519     1.8223055      0.109375              56 
    697000   1.0927378      0.028336878   -0.70235203     1.6063246      0.09765625            50 
    698000   1.0569162      0.087945827   -0.59489768     1.5493431      0.0859375             44 
    699000   1.0243623      0.040670194   -0.80199801     1.5038511      0.091796875           47 
    700000   1.0616107      0.062875573   -0.63958023     1.5562247      0.0859375             44 
    701000   0.92932597     0.069530462   -1.0262984      1.3718621      0.12304688            63 
    702000   0.911253       0.08493557    -1.1940936      1.3486544      0.14648438            75 
    703000   0.99844702     0.063492508   -0.59069699     1.4620117      0.08203125            42 
    704000   1.0653865      0.058017732   -1.0730003      1.5749192      0.13476562            69 
    705000   1.1285137      0.05850988    -0.6172759      1.6534038      0.083984375           43 
    706000   0.79500275     0.062432495   -0.58767485     1.170004       0.10351562            53 
    707000   1.0107638      0.14807251    -0.7762576      1.4858228      0.09765625            50 
    708000   1.0035067      0.1159173     -0.67135536     1.4745404      0.095703125           49 
    709000   1.0906741      0.03894402    -0.79653003     1.6026232      0.095703125           49 
    710000   0.95311954     0.053948599   -1.0997056      1.4103593      0.14453125            74 
    711000   1.0061161      0.11016709    -1.3574486      1.4927701      0.1796875             92 
    712000   1.0792288      0.060515316   -0.74691798     1.5877116      0.1015625             52 
    713000   0.85168379     0.04652619    -0.49893529     1.2447686      0.076171875           39 
    714000   1.1285127      0.098202546   -0.60327827     1.6542971      0.0859375             44 
    715000   1.0120515      0.094081324   -0.49988362     1.4827731      0.083984375           43 
    716000   1.1089915      0.089876059   -1.0004925      1.6400579      0.13867188            71 
    717000   0.93331262     0.017227775   -1.275848       1.3834987      0.16601562            85 
    718000   1.0560805      0.063986066   -0.73114405     1.5517917      0.095703125           49 
    719000   0.83238328    -0.060961522   -1.3778498      1.2358344      0.19140625            98 
    720000   0.96733886     0.055678117   -0.81994682     1.4246263      0.10742188            55 
    721000   1.091562       0.038509541   -0.78116858     1.6025059      0.091796875           47 
    722000   0.79028347     0.077302169   -0.78371546     1.1642569      0.109375              56 
    723000   1.1983732      0.058129586   -0.8313939      1.7648769      0.10742188            55 
    724000   1.2197271      0.10411341    -0.63931897     1.7929988      0.09765625            50 
    725000   1.0942474      0.041463904   -0.99082149     1.6153177      0.12304688            63 
    726000   1.0748661      0.066554885   -0.93405874     1.5889325      0.13476562            69 
    727000   0.86766395     0.068181248   -0.84512557     1.2764672      0.1015625             52 
    728000   0.86113434     0.074015058   -1.1822396      1.2735085      0.13867188            71 
    729000   0.76997436     0.010358768   -0.46670326     1.1151353      0.056640625           29 
    730000   1.0372584      0.039344898   -1.3544624      1.5387899      0.17773438            91 
    731000   1.1471581      0.039287693   -1.1938899      1.7004931      0.16601562            85 
    732000   1.0438299      0.056682396   -0.76536308     1.5317069      0.08984375            46 
    733000   1.0106044      0.063930868   -0.97245289     1.4893118      0.11132812            57 
    734000   0.95010295     0.046974637   -1.0302898      1.3997052      0.109375              56 
    735000   1.1006547      0.071635167   -1.0123082      1.6192325      0.1015625             52 
    736000   1.0078824     -0.034103328   -1.3003279      1.4948368      0.17382812            89 
    737000   1.1841431      0.046119502   -0.8305584      1.7444965      0.109375              56 
    738000   0.92257904     0.018575253   -1.2126045      1.3651676      0.14453125            74 
    739000   1.1703518      0.10457168    -1.422979       1.7358026      0.17382812            89 
    740000   0.99377607     0.049356609   -0.68240361     1.4596086      0.09375               48 
    741000   0.9136036      0.050006216   -0.68858012     1.3399519      0.087890625           45 
    742000   0.91811315     0.054596397   -0.52712069     1.346566       0.087890625           45 
    743000   1.0215826      0.031811353   -1.0551728      1.511091       0.140625              72 
    744000   0.88844047     0.042125649   -0.43344864     1.2975907      0.07421875            38 
    745000   0.88162898     0.0061230036  -1.2626448      1.3065104      0.16210938            83 
    746000   1.0574044      0.045186139   -0.99689698     1.5624333      0.13085938            67 
[...]
  13018000   1.034219       0.10327096    -1.3611225      1.5314397      0.15234375            78 
  13019000   0.92926347     0.065165149   -1.333699       1.3771013      0.16210938            83 
  13020000   0.9923429      0.068633617   -1.6657219      1.4755708      0.22460938           115 
  13021000   1.0200736      0.087250672   -1.3668111      1.5118948      0.1640625             84 
  13022000   0.9762778      0.12034454    -0.92630563     1.4407971      0.12109375            62 
  13023000   0.9663794      0.057571175   -1.3419603      1.4294362      0.140625              72 
  13024000   0.92783291     0.045731301   -0.70729488     1.3601187      0.0859375             44 
  13025000   0.99557254     0.1123364     -0.86143516     1.4713977      0.1328125             68 
  13026000   0.92199665     0.082894016   -0.83418549     1.3587319      0.11132812            57 
  13027000   0.96616266     0.039209759   -0.65655892     1.418409       0.091796875           47 
  13028000   0.78669218     0.096168967   -0.55692611     1.158583       0.10742188            55 
  13029000   1.0780822      0.1071599     -0.85155985     1.5897144      0.11523438            59 
  13030000   0.89452837     0.0360469     -0.96290507     1.3138386      0.09375               48 
  13031000   0.83076489     0.018775927   -1.1110344      1.2242851      0.11132812            57 
  13032000   0.86269552     0.00090646921 -0.69641277     1.2721103      0.11523438            59 
  13033000   0.98282509     0.073268156   -0.89026993     1.445331       0.099609375           51 
  13034000   1.092731       0.041926006   -0.86919829     1.6117782      0.1171875             60 
  13035000   0.97983539     0.023552217   -1.032734       1.4484523      0.13476562            69 
  13036000   0.91613908     0.053028208   -0.59163527     1.3461635      0.095703125           49 
  13037000   1.1398266      0.07590247    -1.5768862      1.6948726      0.22460938           115 
  13038000   1.0185643      0.056126288   -1.0027088      1.5069171      0.14257812            73 
  13039000   1.1119243      0.11927875    -0.78684706     1.6409851      0.12109375            62 
  13040000   1.1858179      0.10005872    -0.97830321     1.7490814      0.1171875             60 
  13041000   1.1940539      0.06886334    -0.85668754     1.7617189      0.11914062            61 
  13042000   1.0039702      0.00079834813 -1.3272129      1.4861401      0.1484375             76 
  13043000   1.0287439      0.044243211   -1.5589809      1.5272075      0.18945312            97 
  13044000   0.9780717      0.058908674   -1.4313229      1.4509855      0.17773438            91 
  13045000   0.99828597     0.021237402   -1.1263396      1.4732769      0.12109375            62 
  13046000   1.1476928      0.01961578    -1.2198086      1.6991815      0.15039062            77 
  13047000   1.0589863      0.075636231   -0.82451677     1.5647708      0.13085938            67 
  13048000   0.65247449     0.12877169    -0.44423226     0.95696259     0.087890625           45 
  13049000   1.0927758      0.058391914   -0.66000078     1.6027378      0.087890625           45 
  13050000   1.2338122      0.064977889   -0.97369744     1.8198731      0.1171875             60 
  13051000   1.0507263      0.072712743   -0.52405924     1.5410652      0.087890625           45 
  13052000   0.85062669     0.073223303   -0.94438535     1.2475858      0.087890625           45 
  13053000   1.1254603      0.086181394   -0.89980174     1.6580442      0.109375              56 
  13054000   1.0419063      0.10051169    -1.0373291      1.5380521      0.12304688            63 
  13055000   0.97053312     0.052233605   -0.95772669     1.4326918      0.12304688            63 
  13056000   0.94545229     0.034593598   -0.88161718     1.3919159      0.10546875            54 
  13057000   1.1260974      0.029976445   -1.1894287      1.670167       0.17382812            89 
  13058000   1.1204937      0.079151198   -0.80702214     1.6512539      0.11132812            57 
  13059000   0.70527926     0.02066619    -0.55514913     1.0314709      0.078125              40 
  13060000   0.85307892     0.05125613    -0.59505176     1.2430579      0.068359375           35 
  13061000   1.1366313      0.029055405   -0.88933127     1.665297       0.083984375           43 
  13062000   0.95762986     0.054093693   -1.5155487      1.422362       0.19921875           102 
  13063000   0.96333399     0.053360256   -1.4706097      1.423751       0.1328125             68 
  13064000   0.94172617     0.085245291   -1.3703557      1.3965371      0.171875              88 
  13065000   0.8423643      0.0032116118  -0.57805167     1.2263833      0.06640625            34 
  13066000   1.1193979      0.073592235   -0.5340944      1.6349101      0.07421875            38 
  13067000   1.0173988      0.011530343   -0.69669415     1.492185       0.087890625           45 
  13068000   0.94927347     0.004195      -1.2029145      1.4063311      0.15820312            81 
  13069000   1.0015025      0.18620091    -1.0698848      1.4772162      0.1171875             60 
  13070000   1.0165037      0.1220983     -1.3337404      1.5046929      0.1484375             76 
  13071000   1.1206533      0.10159885    -0.98693023     1.6534229      0.11914062            61 
  13072000   0.99802189     0.06195882    -0.58431225     1.4630094      0.0859375             44 
  13073000   1.0024172      0.047222038   -0.9880037      1.4830281      0.14257812            73 
  13074000   1.0870845      0.075940974   -1.10561        1.610741       0.16015625            82 
  13075000   1.1582688      0.052863073   -0.89608855     1.6950275      0.080078125           41 
  13076000   0.94833788     0.060785488   -0.56868966     1.3901771      0.0859375             44 
  13077000   1.1461074      0.088009174   -0.60283261     1.6800893      0.0859375             44 
  13078000   1.0328512      0.050947686   -0.77481022     1.5230178      0.11523438            59 
  13079000   0.97312709     0.042588303   -0.93050018     1.4391316      0.13867188            71 
  13080000   0.94832682     0.11274817    -0.88239271     1.4009373      0.12890625            66 
  13081000   1.0263174      0.041064075   -0.79740393     1.5019279      0.080078125           41 
  13082000   0.91475143     0.036511302   -0.89957247     1.3488708      0.11523438            59 
  13083000   0.8879858      0.041891134   -0.65392981     1.2978254      0.076171875           39 
  13084000   1.1241439      0.069142296   -1.0350308      1.6598688      0.125                 64 
  13085000   0.85031855     0.022972392   -0.85389126     1.2552321      0.12304688            63 
  13086000   1.0044325      0.078575657   -0.78818344     1.4841615      0.13085938            67 
  13087000   0.94225566     0.04034745    -0.64343149     1.3845389      0.095703125           49 
  13088000   0.85632503     0.046310913   -0.38535817     1.2523754      0.078125              40 
  13089000   1.0551837      0.12409057    -0.78722833     1.5539979      0.10742188            55 
  13090000   0.96442751     0.070882497   -1.0374147      1.4236787      0.12304688            63 
  13091000   0.95369137    -0.024762568   -1.2306282      1.4121968      0.15234375            78 
  13092000   0.9735673      0.10729769    -1.4073817      1.446574       0.20703125           106 
  13093000   1.0751679      0.083604597   -0.48173916     1.5666733      0.068359375           35 
  13094000   0.96136948     0.05673911    -0.54260529     1.4107052      0.08984375            46 
  13095000   0.98740389     0.057193099   -0.66012019     1.4481924      0.087890625           45 
  13096000   1.0675976      0.075213946   -1.0726105      1.5816261      0.15820312            81 
  13097000   0.91556735     0.034409445   -0.85444241     1.3464226      0.099609375           51 
  13098000   1.0625219      0.06509087    -1.4452739      1.5768277      0.18359375            94 
  13099000   0.95914808     0.046003656   -1.1061063      1.4178711      0.13476562            69 
  13100000   0.98846051     0.042598915   -0.89736358     1.4557327      0.10742188            55 
  13101000   0.93946323     0.025898516   -0.98682962     1.3898908      0.14257812            73 
  13102000   0.97173101     0.10324899    -0.94406736     1.4340869      0.12109375            62 
  13103000   0.96219031     0.061516297   -1.1293995      1.41553        0.1015625             52 
  13104000   1.1444317      0.054063094   -0.85928018     1.6865309      0.11132812            57 
  13105000   1.134609       0.083142845   -0.75490571     1.6730676      0.11523438            59 
  13106000   0.95770422     0.013646395   -1.1440353      1.4181389      0.15234375            78 
  13107000   1.0272078      0.020341344   -1.1052804      1.5155525      0.11914062            61 
  13108000   0.94487056     0.039241303   -0.39676966     1.3768114      0.068359375           35 
  13109000   1.0896949      0.068487252   -1.097523       1.5997649      0.091796875           47 
  13110000   1.1811736      0.042804783   -0.75924872     1.7274664      0.078125              40 
  13111000   1.0320641      0.11777423    -1.1340592      1.5305041      0.171875              88 
  13112000   1.068987       0.10598651    -2.2655582      1.5926462      0.2890625            148 
  13113000   1.0017293      0.12459425    -2.1281001      1.4938068      0.33398438           171 
  13114000   1.0799339      0.030152462   -2.0879294      1.6098394      0.31445312           161 
  13115000   0.96182302     0.057877626   -2.0723612      1.4341976      0.33007812           169 
  13116000   1.2043577      0.09658822    -1.3070493      1.7814458      0.140625              72 
  13117000   0.96652591     0.071685979   -0.78401176     1.4168391      0.0859375             44 
  13118000   1.2458732      0.072821157   -0.87187962     1.8342022      0.10546875            54 
  13119000   1.1492472      0.044611496   -0.83654417     1.6951395      0.1171875             60 
  13120000   1.1344372      0.096790145   -1.4519606      1.6831596      0.1796875             92 
  13121000   1.0582889      0.037028544   -1.1799461      1.5650752      0.13867188            71 
  13122000   1.0758984      0.085360219   -0.98600884     1.5907926      0.13671875            70 
  13123000   1.0372326      0.098368199   -0.32705926     1.5056602      0.060546875           31 
  13124000   0.99122932     0.022277938   -1.0955044      1.4677819      0.15234375            78 
  13125000   0.95038916    -0.01521155    -1.0362665      1.4029554      0.12304688            63 
  13126000   1.0158415      0.059202462   -1.472393       1.5049504      0.15820312            81 
  13127000   0.97904088    -0.021402183   -1.6918699      1.4557912      0.22460938           115 
  13128000   0.8430265      0.12444838    -1.6191722      1.2518944      0.1953125            100 
  13129000   0.8949141      0.039268156   -0.77458194     1.3199983      0.1171875             60 
  13130000   0.97669198     0.0040004286  -2.3327841      1.4571188      0.36132812           185 
  13131000   0.99734633     0.034840571   -2.927732       1.4895988      0.45507812           233 
  13132000   1.0304398      0.15768645    -2.8325871      1.5388205      0.44140625           226 
  13133000   0.99214206    -0.045740948   -2.5165845      1.4810582      0.40625              208 
  13134000   1.0082463     -0.072124016   -2.8882944      1.5059611      0.4609375            236 
  13135000   0.97252144     0.052997047   -2.554514       1.4516313      0.3984375            204 
  13136000   1.0047009     -0.070543247   -2.8415596      1.5007192      0.46484375           238 
  13137000   0.97509818    -0.06190929    -2.9152715      1.4566033      0.47265625           242 
  13138000   0.94194305    -0.049189882   -3.0069346      1.4072629      0.48828125           250 
  13139000   0.96705878     0.047745379   -3.3780262      1.4455688      0.56445312           289 
  13140000   1.0057985     -0.032986218   -3.3889239      1.5035309      0.5703125            292 
  13141000   1.0291258      0.11719794    -3.3443467      1.5383839      0.56835938           291 
  13142000   1.0140647      0.17392869    -3.5261546      1.5160267      0.5859375            300 
  13143000   1.0496398      0.10242405    -3.3427526      1.5689159      0.5546875            284 
  13144000   1.0537382     -0.15152942    -3.4122504      1.5750614      0.55664062           285 
  13145000   0.96639242    -0.022751076   -3.2685207      1.4443555      0.54101562           277 
  13146000   0.93671394     0.072737576   -3.3031854      1.4000707      0.54882812           281 
  13147000   1.0744631      0.37866116    -3.6126765      1.6065619      0.61328125           314 
  13148000   0.96459425    -0.12872497    -3.5561169      1.4420523      0.58398438           299 
  13149000   1.0125862     -0.21947478    -3.3533831      1.5135122      0.55273438           283 
  13150000   0.99954748    -0.16765582    -3.1388239      1.4937267      0.5234375            268 
  13151000   1.0244377     -0.088238871   -3.1407892      1.5308796      0.51953125           266 
  13152000   0.96732543    -0.13365961    -3.4252565      1.446036       0.57226562           293 
  13153000   1.0227974      0.027831647   -3.5229825      1.529099       0.58789062           301 
  13154000   1.0275992     -0.076048      -3.3336412      1.5360094      0.55859375           286 
  13155000   1.0647421      0.074694567   -3.4672216      1.5916992      0.57617188           295 
  13156000   0.99349664     0.035930293   -3.6094917      1.4854065      0.6015625            308 
  13157000   0.97160854    -0.1963037     -3.4240964      1.4522811      0.5546875            284 
  13158000   1.060187      -0.013919558   -3.3539196      1.5846809      0.5546875            284 
  13159000   0.96716598     0.026242275   -3.1577403      1.4454349      0.53320312           273 
  13160000   0.94080107    -0.2170824     -3.1728093      1.4058153      0.51171875           262 
  13161000   1.0044126      0.095776377   -3.1727783      1.5010798      0.53125              272 
  13162000   0.99616982     0.073514756   -3.1520687      1.4886583      0.52148438           267 
  13163000   0.91244435    -0.087356794   -3.1837351      1.3635785      0.52539062           269 
  13164000   0.93781909     0.054699101   -2.8004641      1.4006389      0.45117188           231 
  13165000   1.0071446     -0.059748086   -2.7579215      1.5039424      0.43554688           223 
  13166000   0.96202404    -0.025612596   -2.7708723      1.4370484      0.47070312           241 
  13167000   1.0341126     -0.053436216   -3.1354854      1.545381       0.5234375            268 
  13168000   1.0544966      0.3668283     -3.3441244      1.5762906      0.56640625           290 
  13169000   0.92135036    -0.16195612    -3.2595706      1.3769632      0.53320312           273 
  13170000   0.92907416    -0.036908806   -2.9940915      1.3881461      0.49804688           255 
  13171000   1.0771995      0.34270768    -3.0852131      1.6096556      0.51367188           263 
  13172000   0.9469362     -0.16550702    -3.2502851      1.4152579      0.5390625            276 
  13173000   0.99845768    -0.238769      -3.221787       1.49216        0.52929688           271 
  13174000   1.0440856      0.35610148    -3.3614449      1.5607466      0.56835938           291 
  13175000   0.9702808     -0.018895529   -3.4206775      1.4504539      0.57226562           293 
  13176000   0.96437197    -0.005622246   -3.2567218      1.4412977      0.53710938           275 
  13177000   0.96763649     0.24578958    -3.3293909      1.4465178      0.57421875           294 
  13178000   1.0446208     -0.055177019   -3.332692       1.5614331      0.55664062           285 
  13179000   1.0518575      0.16290467    -3.3529966      1.5723078      0.5625               288 
  13180000   1.0099925     -0.077370564   -3.230738       1.5094393      0.53320312           273 
  13181000   1.0067153      0.087001476   -3.1273687      1.50422        0.50390625           258 
  13182000   0.89207243     0.073722621   -3.2743776      1.3332604      0.5390625            276 
  13183000   0.917566       0.089717367   -3.1329535      1.3711941      0.52148438           267 
  13184000   0.92152496     0.036207146   -3.5198733      1.3777103      0.58984375           302 
  13185000   1.079147       0.050282497   -3.2475555      1.6128343      0.53710938           275 
  13186000   0.94806614     0.18671923    -3.3708182      1.417229       0.5703125            292 
  13187000   1.0217722      0.23037008    -3.5538116      1.5276821      0.6015625            308 
  13188000   0.94522392     0.027592773   -3.5614267      1.4131719      0.59375              304 
  13189000   1.0169196     -0.25670947    -3.4065014      1.5199703      0.55078125           282 
  13190000   0.9432549      0.051715234   -3.2949739      1.4099524      0.56054688           287 
  13191000   0.99673424    -0.22903183    -3.6969426      1.4903094      0.609375             312 
  13192000   0.99633175     0.022480192   -3.6734061      1.4897076      0.609375             312 
  13193000   0.98257752     0.041400836   -3.480004       1.4690654      0.59960938           307 
  13194000   0.91816917     0.051734189   -3.4710791      1.3726476      0.58398438           299 
  13195000   0.97099408     0.13405346    -3.2199462      1.4512707      0.54492188           279 
  13196000   1.0524006      0.16421351    -3.3335764      1.5731386      0.56445312           289 
  13197000   1.0019912     -0.10840226    -3.4244609      1.4977862      0.56445312           289 
  13198000   1.0531741      0.093625751   -3.1659555      1.5739745      0.53320312           273 
  13199000   0.93527512    -0.06272638    -3.3142937      1.3979023      0.546875             280 
  13200000   1.0231884     -0.063088252   -3.4570478      1.5295084      0.56835938           291 
  13201000   1.0278575     -0.11337632    -3.41759        1.5364697      0.56640625           290 
  13202000   1.0722072     -0.076697809   -3.5456611      1.6028589      0.57617188           295 
  13203000   0.99633408    -0.2232019     -3.4921667      1.489435       0.57617188           295 
  13204000   1.0190714      0.22615056    -3.4567969      1.5235455      0.58984375           302 
  13205000   0.99428517     0.17245821    -3.5274855      1.4864893      0.58984375           302 
  13206000   1.0065364     -0.26805343    -3.6263243      1.5048382      0.59375              304 
  13207000   1.0236434     -0.18564084    -3.4820898      1.5301703      0.56640625           290 
  13208000   1.0825272      0.28970017    -3.4980858      1.618305       0.578125             296 
  13209000   1.077478       0.011586515   -3.4043497      1.610663       0.56835938           291 
  13210000   1.0459397      0.2504954     -3.3635011      1.5636271      0.58007812           297 
  13211000   0.96755212     0.33970116    -3.4572765      1.4465853      0.59765625           306 
  13212000   1.0281408      0.14409688    -3.410206       1.5369655      0.57421875           294 
  13213000   0.97364624     0.09589284    -3.1785703      1.4552534      0.546875             280 
  13214000   0.971563      -0.20333512    -2.9362851      1.4513472      0.47460938           243 
  13215000   0.9389422     -0.20769029    -2.9100026      1.4025693      0.47070312           241 
  13216000   1.0660056      0.071913652   -2.6996601      1.5914301      0.41210938           211 
  13217000   0.95779093     0.014034841   -2.9660016      1.4307741      0.47460938           243 
  13218000   0.96142009    -0.17454554    -3.3026438      1.4368282      0.53125              272 
  1321