LAMMPS (7 Feb 2024 - Development - patch_7Feb2024_update1-89-g6c3c724f9c)
# 3d Lennard-Jones melt

# variable	x equal 1
# variable	y equal 1
# variable	z equal 1
variable     t equal 5000000
variable T equal 1.0

# variable f

variable	xx equal ${f}#*$x
variable	xx equal 8.0
variable	yy equal ${f}#*$y
variable	yy equal 8.0
variable	zz equal ${f}#*$z
variable	zz equal 8.0


print "xx ${xx}"
xx 8
units		lj
atom_style	atomic

#lattice		fcc 1.2

region		box block 0 ${xx} 0 ${yy} 0 ${zz}
region		box block 0 8 0 ${yy} 0 ${zz}
region		box block 0 8 0 8 0 ${zz}
region		box block 0 8 0 8 0 8
create_box	1 box
Created orthogonal box = (0 0 0) to (8 8 8)
  1 by 2 by 2 MPI processor grid
#create_atoms	1 box

variable rhoinit equal 0.1
variable npart equal round(${xx}*${yy}*${zz}*${rhoinit})
variable npart equal round(8*${yy}*${zz}*${rhoinit})
variable npart equal round(8*8*${zz}*${rhoinit})
variable npart equal round(8*8*8*${rhoinit})
variable npart equal round(8*8*8*0.1)

create_atoms 1 random  ${npart}  1 box
create_atoms 1 random  51  1 box
Created 51 atoms
  using lattice units in orthogonal box = (0 0 0) to (8 8 8)
  create_atoms CPU = 0.001 seconds
mass		1 1.0




pair_style	lj/cut 2.5
pair_coeff	1 1 1.0 1.0 2.5
pair_modify shift yes

neighbor	0.3 bin
neigh_modify	delay 0 every 20 check no

# variable betamu equal -3.865950
variable mu equal ${betamu}*$T
variable mu equal -3.092*$T
variable mu equal -3.092*1


dump mydump all atom 1000 tj-mu${mu}-T$T.atom
dump mydump all atom 1000 tj-mu-3.092-T$T.atom
dump mydump all atom 1000 tj-mu-3.092-T1.atom

min_style cg
minimize 1.0e-8 1.0e-8 1000 10000
Switching to 'neigh_modify every 1 delay 0 check yes' setting during minimization
Generated 0 of 0 mixed pair_coeff terms from geometric mixing rule
Neighbor list info ...
  update: every = 1 steps, delay = 0 steps, check = yes
  max neighbors/atom: 2000, page size: 100000
  master list distance cutoff = 2.8
  ghost atom cutoff = 2.8
  binsize = 1.4, bins = 6 6 6
  1 neighbor lists, perpetual/occasional/extra = 1 0 0
  (1) pair lj/cut, perpetual
      attributes: half, newton on
      pair build: half/bin/atomonly/newton
      stencil: half/bin/3d
      bin: standard
Per MPI rank memory allocation (min/avg/max) = 4.186 | 4.186 | 4.186 Mbytes
   Step          Temp          E_pair         E_mol          TotEng         Press     
         0   0              157603.02      0              157603.02      62822.198    
       936   0             -4.1851423      0             -4.1851423      2.6556891e-05
Loop time of 0.0421123 on 4 procs for 936 steps with 51 atoms

98.1% CPU use with 4 MPI tasks x no OpenMP threads

Minimization stats:
  Stopping criterion = energy tolerance
  Energy initial, next-to-last, final = 
      157603.019655957    -4.185142291789  -4.18514232887632
  Force two-norm initial, final = 4.3712523e+08 0.028599514
  Force max component initial, final = 2.9901061e+08 0.010663264
  Final line search alpha, max atom move = 1 0.010663264
  Iterations, force evaluations = 936 1861

MPI task timing breakdown:
Section |  min time  |  avg time  |  max time  |%varavg| %total
---------------------------------------------------------------
Pair    | 0.0014028  | 0.0064889  | 0.014479   |   6.1 | 15.41
Neigh   | 0.00088657 | 0.0012951  | 0.0017657  |   0.9 |  3.08
Comm    | 0.015881   | 0.022489   | 0.025013   |   2.6 | 53.40
Output  | 0          | 0          | 0          |   0.0 |  0.00
Modify  | 0          | 0          | 0          |   0.0 |  0.00
Other   |            | 0.01184    |            |       | 28.11

Nlocal:          12.75 ave          35 max           1 min
Histogram: 2 0 1 0 0 0 0 0 0 1
Nghost:         108.25 ave         163 max          50 min
Histogram: 1 0 0 0 1 0 1 0 0 1
Neighs:         193.75 ave         485 max          30 min
Histogram: 1 1 1 0 0 0 0 0 0 1

Total # of neighbors = 775
Ave neighs/atom = 15.196078
Neighbor list builds = 174
Dangerous builds not checked

group       gcmcgroup type 1
51 atoms in group gcmcgroup
compute mdtemp all temp
compute_modify mdtemp dynamic/dof yes


fix mygcmc gcmcgroup gcmc 1 10 0 1 29494 ${T} ${mu} 1.0
fix mygcmc gcmcgroup gcmc 1 10 0 1 29494 1 ${mu} 1.0
fix mygcmc gcmcgroup gcmc 1 10 0 1 29494 1 -3.092 1.0
fix	mdnvt all nvt temp 1.0 1.0 0.05
fix_modify mdnvt temp mdtemp

# atom count

variable    type1 atom "type==1"
group       type1 dynamic gcmcgroup var type1
dynamic group type1 defined
variable    n1 equal count(type1)

# averaging

# variable    rho equal density
# variable    p equal press
# variable    nugget equal 1.0e-8
# variable        lambda equal 1.0
# variable        muex equal ${mu}-${T}*ln(density*${lambda}+${nugget})
# fix         ave all ave/time 10 100 1000 v_rho v_p v_muex v_n1 ave one file rho_vs_p.dat
# variable    rhoav equal f_ave[1]
# variable    pav equal f_ave[2]
# variable    muexav equal f_ave[3]
# variable    n1av equal f_ave[4]

# output

# variable    tacc equal f_mygcmc[2]/(f_mygcmc[1]+${nugget})
# variable    iacc equal f_mygcmc[4]/(f_mygcmc[3]+${nugget})
# variable    dacc equal f_mygcmc[6]/(f_mygcmc[5]+${nugget})
compute_modify  thermo_temp dynamic yes
thermo_style    custom step c_mdtemp press pe ke density atoms # v_iacc v_dacc v_tacc v_rhoav v_pav v_muexav v_n1av
thermo          1000


# fix extra all print 200 "${rho}" file density-betamu$	{betamu}-T$T.txt screen no
fix extra all print 200 "${n1} $(density) $(press)" file n-betamu${betamu}-T$T.txt screen no
fix extra all print 200 "${n1} $(density) $(press)" file n-betamu-3.092-T$T.txt screen no
fix extra all print 200 "${n1} $(density) $(press)" file n-betamu-3.092-T1.txt screen no

run		$t
run		5000000
Generated 0 of 0 mixed pair_coeff terms from geometric mixing rule
Per MPI rank memory allocation (min/avg/max) = 3.562 | 3.562 | 3.562 Mbytes
   Step        c_mdtemp        Press          PotEng         KinEng        Density        Atoms   
       936   0              2.6556891e-05 -4.1851423      0              0.099609375           51 
      1000   1.0442689      0.3579124     -2.6445939      1.5504196      0.19140625            98 
      2000   1.05568        0.042527061   -2.7967982      1.5766351      0.44921875           230 
      3000   1.0392119      0.075797517   -3.2080976      1.5532107      0.54296875           278 
      4000   0.903219       0.12662583    -3.3323796      1.3501078      0.56054688           287 
      5000   0.97452722    -0.09076968    -3.5583298      1.4569182      0.5859375            300 
      6000   1.0333968      0.24382705    -3.3898958      1.5448048      0.57226562           293 
      7000   0.94890327    -0.064492822   -3.481683       1.4185945      0.58398438           299 
      8000   1.049677       0.023219004   -3.4497112      1.5691962      0.578125             296 
      9000   0.92341691     0.013371072   -3.5303059      1.3805083      0.5859375            300 
     10000   1.0133019      0.13149503    -3.413752       1.5147297      0.56835938           291 
     11000   0.96195333     0.25938541    -3.4240513      1.4381521      0.58984375           302 
     12000   1.0343396      0.082891342   -3.4814484      1.5463203      0.58398438           299 
     13000   1.0319178     -0.070283693   -3.6342341      1.5428348      0.59960938           307 
     14000   0.98017312    -0.10734945    -3.5719549      1.4655169      0.60546875           310 
     15000   0.97019173     0.13872078    -3.4902282      1.4504688      0.58984375           302 
     16000   0.99255685    -0.061768223   -3.2532615      1.4834797      0.54296875           278 
     17000   1.0818408     -0.088164461   -3.1315914      1.6166834      0.52148438           267 
     18000   0.99233404     0.18850585    -3.4702769      1.4835061      0.58203125           298 
     19000   0.96035409    -0.030966601   -3.5080591      1.4356971      0.58203125           298 
     20000   1.0135636     -0.027504265   -3.5284397      1.5152606      0.58398438           299 
     21000   0.97230768     0.25543491    -3.641201       1.4538607      0.61914062           317 
     22000   0.96808086    -0.081102269   -3.5592922      1.4473758      0.59765625           306 
     23000   1.0498998      0.25606038    -3.5173989      1.5697531      0.60351562           309 
     24000   1.0075157      0.17417073    -3.4407818      1.5060078      0.56054688           287 
     25000   1.0462676      0.069510421   -3.2244098      1.5636315      0.53125              272 
     26000   1.0516725      0.14415003    -3.3629312      1.5721064      0.5703125            292 
     27000   1.0051587     -0.021870702   -3.248279       1.5023145      0.54296875           278 
     28000   0.95069756    -0.041718001   -3.618631       1.4214313      0.60351562           309 
     29000   0.97743894     0.11126478    -3.2919082      1.461014       0.55664062           285 
     30000   1.0520864      0.11498221    -3.2537571      1.5724324      0.54101562           277 
     31000   1.0262683     -0.092642024   -3.4087609      1.5341124      0.56835938           291 
     32000   0.96780426     0.069210422   -3.3963082      1.4467348      0.5703125            292 
     33000   0.9808173      0.0098879957  -3.5332862      1.4664023      0.59570312           305 
     34000   1.0031343      0.087891693   -3.3504832      1.4993276      0.546875             280 
     35000   0.97722051    -0.19903942    -3.6130073      1.461087       0.60351562           309 
     36000   1.025977       0.021885942   -3.5181037      1.5338355      0.5859375            300 
     37000   1.0382913      0.035875458   -3.4801428      1.5521931      0.58007812           297 
     38000   1.0294021     -0.037108458   -3.3789623      1.5386853      0.55664062           285 
     39000   0.99215635     0.31273445    -3.3724697      1.4831378      0.5703125            292 
     40000   0.97146007     0.34189946    -3.3450948      1.4521826      0.56835938           291 
     41000   0.99721633     0.014131883   -3.4956715      1.4908384      0.5859375            300 
     42000   0.99594701     0.06266568    -3.2833626      1.488566       0.54492188           279 
     43000   0.9533204     -0.03093832    -3.502901       1.425214       0.5859375            300 
     44000   0.97241267     0.076450159   -3.5402564      1.4538523      0.59765625           306 
     45000   1.0153761     -0.15365966    -3.4031705      1.5178303      0.56835938           291 
     46000   1.0617815     -0.0051615116  -3.4442827      1.5872734      0.57617188           295 
     47000   0.98971253    -0.2095781     -3.2211691      1.4790907      0.52929688           271 
     48000   0.9822981     -0.069304673   -3.3528372      1.468259       0.5546875            284 
     49000   0.99697305     0.19154208    -3.2556407      1.4901187      0.546875             280 
     50000   1.0519156     -0.0017358705  -3.570128       1.572666       0.59179688           303 
     51000   0.93633441     0.00045702106 -3.4060226      1.3997406      0.57617188           295 
     52000   1.0629094     -0.013387246   -3.4482823      1.5888472      0.56445312           289 
     53000   0.96002914    -0.12441611    -3.518008       1.4350951      0.56835938           291 
     54000   1.0130771      0.00049467584 -3.395324       1.5143574      0.56445312           289 
     55000   0.9976336      0.300347      -3.5040278      1.49156        0.59765625           306 
     56000   0.95931967     0.27779715    -3.534015       1.434277       0.59765625           306 
     57000   1.0522889      0.1185937     -3.3749026      1.5728558      0.55273438           283 
     58000   0.94292866    -0.26821378    -3.3155771      1.4094302      0.55664062           285 
     59000   1.0555008      0.20844518    -3.3337766      1.5776368      0.55078125           282 
     60000   1.0445002      0.14699767    -3.0165304      1.5607011      0.50585938           259 
     61000   1.039086       0.15001619    -3.0380528      1.5526573      0.50976562           261 
     62000   0.88032835     0.1342756     -3.3303909      1.3159233      0.56445312           289 
     63000   1.0405143      0.27458374    -3.5667518      1.555769       0.609375             312 
     64000   1.0077942      0.11736776    -3.5944406      1.5067832      0.6015625            308 
     65000   1.1324783     -0.035766892   -3.3073384      1.6925402      0.53710938           275 
     66000   1.0263567      0.06185502    -3.3770819      1.5342264      0.56640625           290 
     67000   1.0255906     -0.087680902   -3.6493143      1.5334073      0.60351562           309 
     68000   0.96650969     0.10419904    -3.4666039      1.4449158      0.58398438           299 
     69000   0.98407243    -0.068806729   -3.2656326      1.4707797      0.54101562           277 
     70000   1.0144713      0.022069799   -3.4281113      1.5165134      0.57226562           293 
     71000   0.96437489     0.12014348    -3.6024028      1.441896       0.60546875           310 
     72000   1.0418117      0.24583308    -3.5274311      1.5576106      0.59765625           306 
     73000   1.0049962     -0.093788864   -3.4524739      1.5024014      0.578125             296 
     74000   0.99405228     0.25570048    -3.5111453      1.4861896      0.59570312           305 
     75000   0.98408345     0.31981183    -3.5027727      1.4712695      0.59375              304 
     76000   0.95201112     0.058835834   -3.8858041      1.4237024      0.64648438           331 
     77000   0.98555587     0.25475472    -3.623089       1.4736257      0.61328125           314 
     78000   0.93631479     0.051824408   -3.4636753      1.3996623      0.5703125            292 
     79000   1.0608431      0.032157281   -3.4963666      1.5859604      0.5859375            300 
     80000   1.0185483     -0.16901879    -3.6887766      1.5228619      0.6015625            308 
     81000   1.0315254      0.27039354    -3.5462494      1.5421983      0.59375              304 
     82000   0.99817875     0.030256411   -3.5416174      1.4922605      0.58398438           299 
     83000   0.98566355     0.23568747    -3.306977       1.4731961      0.54492188           279 
     84000   0.95261976     0.16189164    -3.4877166      1.4242446      0.59570312           305 
     85000   1.0317602     -0.098479398   -3.4475049      1.5424468      0.58203125           298 
     86000   0.95192791     0.18491972    -3.579433       1.4232255      0.59765625           306 
     87000   0.98258525     0.0066882296  -3.3876308      1.4687245      0.55859375           286 
     88000   1.0979076      0.18694218    -3.4458087      1.6412599      0.57421875           294 
     89000   1.0388328     -0.25802126    -3.5847194      1.5531234      0.59375              304 
     90000   1.0082731      0.18729915    -3.5023214      1.5074346      0.59375              304 
     91000   1.0746383     -0.10701454    -3.3425044      1.6062616      0.55273438           283 
     92000   0.97806249     0.053891278   -3.2610935      1.4618353      0.54492188           279 
     93000   1.0666207      0.19357235    -3.2829722      1.5943173      0.55664062           285 
     94000   0.9399556     -0.26263576    -3.1239239      1.4044685      0.50390625           258 
     95000   1.0892716      0.2443469     -3.0161969      1.6275745      0.50390625           258 
     96000   0.98405964     0.01879239    -3.0770108      1.4705403      0.51953125           266 
     97000   1.0303493     -0.13129855    -3.1338631      1.5396024      0.50976562           261 
     98000   1.0449042      0.11139632    -2.9835201      1.5610363      0.484375             248 
     99000   1.0537924      0.11928831    -3.1566583      1.5748342      0.52734375           270 
    100000   1.0225777      0.20542521    -3.4951653      1.5288703      0.59960938           307 
    101000   1.1102734      0.32584349    -3.7491682      1.6602219      0.62695312           321 
    102000   0.98155534     0.15427328    -3.4719176      1.4674415      0.58789062           301 
    103000   1.0055155     -0.10709949    -3.5067911      1.503212       0.58203125           298 
    104000   1.0494898      0.032716384   -3.4749704      1.5689521      0.58203125           298 
    105000   0.96861993     0.10303458    -3.4112855      1.4479541      0.5703125            292 
    106000   0.96893425     0.20414467    -3.4643652      1.4486047      0.59179688           303 
    107000   1.0206167      0.2890307     -3.4888512      1.5259383      0.59960938           307 
    108000   0.93934053     0.27337897    -3.4190209      1.4042666      0.58007812           297 
    109000   0.97563228     0.1218355     -3.7329934      1.4588751      0.625                320 
    110000   1.0381782      0.13319108    -3.5679063      1.5521448      0.59375              304 
    111000   1.0927234      0.20525162    -3.5907082      1.6338147      0.60742188           311 
    112000   0.98580276    -0.042122542   -3.1181401      1.4731241      0.51757812           265 
    113000   0.98844318    -0.062175335   -3.2522855      1.4773884      0.54882812           281 
    114000   0.91822703     0.078778901   -3.2937227      1.3724908      0.5546875            284 
    115000   1.0057149      0.017127413   -3.1615001      1.5031065      0.5390625            276 
    116000   1.0396827      0.00065612629 -3.2817227      1.5540328      0.5546875            284 
    117000   1.0653573      0.10335989    -2.979804       1.5915922      0.484375             248 
    118000   1.0347956     -0.10596686    -2.9409435      1.5457793      0.47265625           242 
    119000   1.0490507      0.12288671    -3.2044348      1.5676156      0.515625             264 
    120000   1.1017119      0.0092197364  -3.672918       1.6472197      0.60351562           309 
    121000   0.93520601    -0.10243543    -3.4478202      1.3980537      0.57617188           295 
    122000   0.94462687    -0.091759261   -3.6971501      1.4124563      0.6171875            316 
    123000   0.9648156      0.21376296    -3.6568837      1.4425997      0.61132812           313 
    124000   1.0218305      0.18105594    -3.8398614      1.5281011      0.64453125           330 
    125000   0.97349438     0.30324351    -3.6032517      1.4555613      0.609375             312 
    126000   0.94840513     0.012865817   -3.7116778      1.4181058      0.6171875            316 
    127000   1.0092607      0.45358998    -3.6715053      1.5092185      0.6328125            324 
    128000   1.0697829      0.20095095    -3.7696731      1.5997369      0.63476562           325 
    129000   1.0198837     -0.032215756   -3.6723078      1.5249379      0.61132812           313 
    130000   1.0165231      0.053590158   -3.4743312      1.519685       0.58398438           299 
    131000   0.95679111    -0.13573307    -3.3065994      1.4300973      0.55078125           282 
    132000   0.9458263      0.073702125   -3.4237255      1.4139464      0.578125             296 
    133000   1.019698       0.11811627    -3.4219372      1.5243445      0.57421875           294 
    134000   0.96126502     0.0811513     -3.7514874      1.4373775      0.62304688           319 
    135000   0.97924238     0.30081085    -3.5048394      1.4640945      0.6015625            308 
    136000   0.95704083     0.019896862   -3.2205733      1.430322       0.53515625           274 
    137000   1.0192315      0.088900221   -3.1931071      1.523308       0.5390625            276 
    138000   1.1116409     -0.091119611   -3.3447237      1.6615273      0.54882812           281 
    139000   0.973268       0.15891245    -3.6647889      1.4552674      0.61523438           315 
    140000   1.0296617     -0.26036621    -3.5508541      1.5393783      0.58984375           302 
    141000   1.1105882     -0.27161393    -3.561322       1.6603661      0.58984375           302 
    142000   0.98224924     0.046264465   -3.4778182      1.4684626      0.5859375            300 
    143000   1.0243465     -0.035808644   -3.2733619      1.5308914      0.53320312           273 
    144000   1.0401118      0.20410808    -3.384271       1.5547316      0.56054688           287 
    145000   0.9783039      0.23197743    -3.5088925      1.4625967      0.58984375           302 
    146000   1.0000922     -0.13349215    -3.7352359      1.4954357      0.62304688           319 
    147000   0.97398527     0.41618192    -3.5246073      1.4562498      0.60351562           309 
    148000   1.0207376      0.016756723   -3.5092604      1.5259685      0.58203125           298 
    149000   0.94337442    -0.0064804057  -3.5628715      1.4104673      0.6015625            308 
    150000   1.0417188     -0.0031587378  -3.6701312      1.5575859      0.61132812           313 
    151000   1.0294049      0.048004301   -3.7458306      1.5392669      0.62304688           319 
    152000   0.96445774     0.15828798    -3.7595106      1.4422215      0.6328125            324 
    153000   1.0970517      0.079662943   -3.5767991      1.6401822      0.59570312           305 
    154000   0.96552145     0.098248901   -3.6767396      1.443699       0.6171875            316 
    155000   0.97818996     0.37319151    -3.4433849      1.4624264      0.58984375           302 
    156000   0.97499085     0.053381393   -3.3834131      1.4574258      0.56445312           289 
    157000   0.97832216     0.12063624    -3.4679411      1.462624       0.58984375           302 
    158000   0.96734755     0.42271266    -3.4831485      1.4463557      0.60742188           311 
    159000   0.98005811     0.1272914     -3.7053226      1.4655075      0.62695312           321 
    160000   0.96239468    -0.024964701   -3.652159       1.4389651      0.609375             312 
    161000   1.0616393      0.24646995    -3.9137582      1.5877195      0.65625              336 
    162000   1.0419612      0.26861025    -3.740206       1.5580879      0.62890625           322 
    163000   0.99108617     0.12285497    -3.6902662      1.481969       0.62304688           319 
    164000   0.95428193     0.20107261    -3.5593836      1.4268054      0.60546875           310 
    165000   0.98943605     0.28105004    -3.6068431      1.4793665      0.60546875           310 
    166000   0.92834834     0.17346279    -3.6035448      1.3880449      0.60742188           311 
    167000   0.95257537     0.19909217    -3.2013262      1.4237047      0.54101562           277 
    168000   1.0611426      0.11608205    -3.4127283      1.5862999      0.57421875           294 
    169000   1.0069288     -0.20960039    -3.5475226      1.5053417      0.58398438           299 
    170000   1.0058424      0.15172772    -3.7595854      1.5040925      0.63085938           323 
    171000   1.0146667     -0.2139956     -3.4550991      1.5168407      0.57617188           295 
    172000   0.95234892     0.068076668   -3.4378697      1.4237297      0.58203125           298 
    173000   1.04588       -0.12488566    -3.4161891      1.5633154      0.55664062           285 
    174000   0.92713507    -0.16511015    -3.2470374      1.3854744      0.51953125           266 
    175000   0.94188585     0.22958636    -3.4108361      1.408135       0.58789062           301 
    176000   0.95296296     0.12988783    -3.4089921      1.4245824      0.57421875           294 
    177000   1.0105337      0.10644186    -3.5357506      1.5108791      0.6015625            308 
    178000   1.1124562      0.0039894959  -3.5784721      1.663177       0.59179688           303 
    179000   0.9400794      0.058727046   -3.3503589      1.4052733      0.56835938           291 
    180000   1.0261983      0.017426024   -3.6617495      1.5344262      0.6171875            316 
    181000   0.96754493     0.12115979    -3.781088       1.4468518      0.63476562           325 
    182000   1.0367737      0.1093073     -3.7499437      1.5503007      0.625                320 
    183000   0.98073289     0.37872415    -3.6833218      1.4665448      0.63085938           323 
    184000   0.99946552     0.49673867    -3.711351       1.4945995      0.63671875           326 
    185000   0.97765918     0.072749034   -3.675977       1.4618626      0.61914062           317 
    186000   1.0485942      0.30725169    -3.7447786      1.5680066      0.62890625           322 
    187000   1.0088771     -0.030363119   -3.6126441      1.5084182      0.60351562           309 
    188000   0.9724954      0.014923234   -3.3476705      1.4536604      0.56054688           287 
    189000   1.0052223      0.0097956687  -3.3300539      1.5025979      0.5625               288 
    190000   1.0825801      0.14148054    -3.2677032      1.6180912      0.54882812           281 
    191000   1.0916141     -0.079469308   -3.6254855      1.6321391      0.60546875           310 
    192000   0.9988351     -0.11322913    -3.4640941      1.493225       0.58203125           298 
    193000   0.98000832    -0.10621332    -3.4982716      1.4651287      0.58789062           301 
    194000   1.0446877      0.39450408    -3.2034821      1.5614149      0.54492188           279 
    195000   1.0116827     -0.064073974   -3.0535505      1.5117758      0.515625             264 
    196000   1.0055906      0.10924054    -2.9665937      1.5024937      0.5                  256 
    197000   1.0851013      0.0014545525  -2.8587639      1.6207258      0.45898438           235 
    198000   0.98584419    -0.15544207    -3.3406882      1.473485       0.546875             280 
    199000   0.96943184     0.069670929   -3.5229848      1.4493327      0.58984375           302 
    200000   1.0579888      0.096334415   -3.3655703      1.5815483      0.5703125            292 
    201000   1.0588812      0.20309078    -3.4575269      1.5829559      0.578125             296 
    202000   1.0068556      0.11050282    -3.7578086      1.505549       0.62304688           319 
    203000   1.0018101      0.13200476    -3.6067706      1.4978988      0.609375             312 
    204000   0.98162796     0.052160995   -3.4819474      1.4675338      0.5859375            300 
    205000   1.0276764      0.21111987    -3.5815597      1.5365579      0.60742188           311 
    206000   1.0647849      0.17787036    -3.4926841      1.5917996      0.58007812           297 
    207000   1.0051193     -0.037624365   -3.2746704      1.5024439      0.5625               288 
    208000   0.99511042     0.094811148   -3.3015286      1.4874647      0.56054688           287 
    209000   0.98790155    -0.10897197    -3.0780525      1.4761309      0.50585938           259 
    210000   0.97351997    -0.064096554   -2.9417771      1.4543439      0.48046875           246 
    211000   0.9038327     -0.11944603    -3.1802084      1.3504114      0.49609375           254 
    212000   1.01328        0.1368236     -3.37206        1.5147325      0.57226562           293 
    213000   0.98223321    -0.14245627    -3.5425804      1.4684873      0.59179688           303 
    214000   0.99143534     0.027392096   -3.6303982      1.4823246      0.6015625            308 
    215000   1.04667        0.26117921    -3.4734826      1.5648062      0.58984375           302 
    216000   0.96939174     0.30612187    -3.565621       1.449397       0.60546875           310 
    217000   1.0048754      0.089449875   -3.7776578      1.5026753      0.63476562           325 
    218000   0.95994674     0.13944568    -3.4095967      1.4350719      0.58007812           297 
    219000   1.0287821     -0.0056294821  -3.4992856      1.5379421      0.57617188           295 
    220000   1.0066765      0.081081346   -3.4104706      1.5047898      0.56445312           289 
    221000   1.0242733     -0.08484534    -3.2260584      1.530823       0.53710938           275 
    222000   1.0252786      0.073826623   -3.4769152      1.5327397      0.58007812           297 
    223000   0.99930979    -0.062607393   -3.3076576      1.4935533      0.54101562           277 
    224000   1.0111098      0.34703505    -3.4520238      1.511626       0.58789062           301 
    225000   1.0261045      0.38746288    -3.3785632      1.5339216      0.57421875           294 
    226000   1.0354581     -0.079660656   -3.6561015      1.548209       0.609375             312 
    227000   1.0273111     -0.26227359    -3.5609871      1.5358302      0.5859375            300 
    228000   1.0474875     -0.076735483   -3.3498906      1.5657944      0.56445312           289 
    229000   0.95885061     0.2563467     -3.496231       1.4334817      0.5859375            300 
    230000   0.9518102     -0.027277555   -3.4184709      1.4228919      0.578125             296 
    231000   0.9607892      0.26760565    -3.539785       1.4365046      0.6015625            308 
    232000   1.0278197      0.35599295    -3.568767       1.5368039      0.61132812           313 
    233000   0.95037795     0.032853375   -3.5550799      1.4208308      0.58789062           301 
    234000   1.0128666      0.41111336    -3.3272148      1.5139503      0.5546875            284 
    235000   1.0189772      0.002312732   -3.2046997      1.5227626      0.5234375            268 
    236000   0.97516631     0.17569697    -3.3722634      1.4577228      0.56835938           291 
    237000   0.96520921    -0.25615843    -3.5173296      1.442906       0.57617188           295 
    238000   0.91846416    -0.044819577   -3.4765962      1.3729456      0.56640625           290 
    239000   1.0544837      0.29395166    -3.403948       1.5763638      0.57617188           295 
    240000   0.99471189    -0.067417466   -3.4755068      1.4869405      0.56835938           291 
    241000   0.97642464     0.27650473    -3.5314181      1.4598816      0.6015625            308 
    242000   1.0088516      0.27073392    -3.538453       1.5083158      0.59570312           305 
    243000   1.057344       0.12649691    -3.4960317      1.5807816      0.59179688           303 
    244000   1.0828335      0.06978141    -3.4446081      1.6187068      0.57226562           293 
    245000   0.95372114     0.017920982   -3.3816122      1.4257323      0.57617188           295 
    246000   0.99485069    -0.022879946   -3.5275331      1.4873833      0.59570312           305 
    247000   1.0300334     -0.1072497     -3.6670932      1.5400821      0.60742188           311 
    248000   1.0209936      0.17313647    -3.5136604      1.5264692      0.59570312           305 
    249000   1.0158071     -0.076760324   -3.6113332      1.5187474      0.59960938           307 
    250000   0.96143034    -0.18590039    -3.7402713      1.4375961      0.61914062           317 
    251000   1.0515504      0.090465713   -3.6309349      1.57227        0.609375             312 
    252000   1.0423497      0.15935515    -3.7921913      1.558684       0.63085938           323 
    253000   1.0070741     -0.06522937    -3.5621876      1.505542       0.58203125           298 
    254000   1.0265426      0.0067822253  -3.436686       1.5345406      0.5703125            292 
    255000   0.97225552     0.11548872    -3.1504771      1.4530801      0.53710938           275 
    256000   0.96085771     0.10157983    -3.1499218      1.4358271      0.515625             264 
    257000   0.97296967     0.12053291    -3.2142697      1.4541085      0.53320312           273 
    258000   1.0069583     -0.43379088    -3.15691        1.5045373      0.5                  256 
    259000   0.98686893     0.063495221   -3.2263796      1.4749786      0.54296875           278 
    260000   1.0351525      0.11567662    -3.2875119      1.5472031      0.54882812           281 
    261000   1.0412811      0.41997735    -3.163366       1.5560276      0.51757812           265 
    262000   0.97498631     0.14608978    -3.4720101      1.4575387      0.578125             296 
    263000   1.0794411      0.22948871    -3.6363207      1.6140051      0.61328125           314 
    264000   0.93762052    -0.27827887    -3.531375       1.4016953      0.58007812           297 
    265000   1.0021627     -0.031896924   -3.0333829      1.4973948      0.50195312           257 
    266000   0.9691187     -0.044025466   -3.233842       1.4483337      0.53125              272 
    267000   0.9854248     -0.15528323    -3.4442296      1.4730924      0.57226562           293 
    268000   1.0770597     -0.21402969    -3.3173477      1.6097571      0.54101562           277 
    269000   0.96474212    -0.23397991    -3.2551762      1.4416933      0.52148438           267 
    270000   0.98217441    -0.033441402   -3.3824415      1.4681283      0.56054688           287 
    271000   1.0774319      0.40931491    -3.2482875      1.6104772      0.55664062           285 
    272000   0.95391749     0.01808905    -3.6508303      1.4263193      0.61328125           314 
    273000   0.95542406     0.17021268    -3.4398788      1.428343       0.58398438           299 
    274000   1.0305741      0.012642943   -3.5080891      1.5406911      0.58398438           299 
    275000   0.92548156     0.0022053956  -3.4163441      1.3835324      0.578125             296 
    276000   1.0656297     -0.020255407   -3.4742902      1.592875       0.56054688           287 
    277000   1.0075339      0.065939273   -3.566346       1.5063294      0.59375              304 
    278000   1.0609771     -0.013264084   -3.7927962      1.5864767      0.62304688           319 
    279000   1.0108904      0.079772485   -3.6757156      1.5114911      0.61132812           313 
    280000   0.9978419      0.096602031   -3.2084169      1.4914363      0.54882812           281 
    281000   1.0060625      0.20932904    -3.4536292      1.5040801      0.58789062           301 
    282000   0.90104049    -0.093603966   -3.4307235      1.3469479      0.57226562           293 
    283000   1.0022919      0.24714144    -3.4511587      1.4983586      0.578125             296 
    284000   0.95939287     0.038077248   -3.4970633      1.4343241      0.58984375           302 
    285000   0.95695866     0.41873124    -3.509407       1.4307623      0.59960938           307 
    286000   0.96088131    -0.024585037   -3.5352622      1.4365651      0.59179688           303 
    287000   0.96597159    -0.18679942    -3.2829581      1.4436303      0.53125              272 
    288000   1.0485539      0.10846827    -3.1233658      1.5670055      0.52734375           270 
    289000   0.96488558    -0.05796778    -3.3026113      1.4421777      0.54882812           281 
    290000   1.055183      -0.018684103   -3.3024992      1.5772596      0.56054688           287 
    291000   1.0001945     -0.10135716    -3.4892671      1.4951887      0.57421875           294 
    292000   1.046524       0.2087757     -3.3167557      1.5643354      0.5625               288 
    293000   1.004316      -0.026182795   -3.2470823      1.500915       0.52929688           271 
    294000   0.98512991     0.027191275   -3.5448508      1.472818       0.59179688           303 
    295000   0.98421645     0.12150901    -3.4732688      1.4714199      0.58789062           301 
    296000   1.0172439     -0.066694279   -3.5043719      1.5207283      0.58007812           297 
    297000   0.98034405     0.024077466   -3.361658       1.4654628      0.56835938           291 
    298000   1.000449      -0.30733862    -3.5810263      1.495737       0.59375              304 
    299000   0.90046322    -0.14317163    -3.183921       1.3458187      0.54101562           277 
    300000   0.98015268     0.14874716    -3.2269187      1.4648827      0.53710938           275 
    301000   0.98919853     0.021901991   -3.6245715      1.4789646      0.59960938           307 
    302000   1.0186535      0.14412005    -3.5219892      1.5229207      0.58984375           302 
    303000   1.0362822      0.16784488    -3.708312       1.5494251      0.60742188           311 
    304000   0.93831892     0.095401076   -3.7809292      1.4031742      0.63867188           327 
    305000   1.0120877      0.21577581    -3.7441472      1.5133874      0.625                320 
    306000   1.0017003      0.14555945    -3.5728006      1.4976721      0.6015625            308 
    307000   1.005956      -0.039294267   -3.3516277      1.5036763      0.56054688           287 
    308000   1.0164883      0.10576097    -3.300961       1.5194198      0.56054688           287 
    309000   1.0425204      0.27191911    -3.414614       1.5585153      0.58007812           297 
    310000   0.99596273    -0.036891266   -3.2735376      1.4885895      0.54492188           279 
    311000   0.97748141     0.049545417   -3.3910673      1.4611487      0.56445312           289 
    312000   1.0021323     -0.14402256    -3.1700347      1.4976515      0.52929688           271 
    313000   0.98855672    -0.13296185    -3.0361349      1.4769274      0.49023438           251 
    314000   0.94885212    -0.2175269     -3.2577321      1.4181214      0.5390625            276 
    315000   0.90313032    -0.18899696    -3.0568002      1.3494037      0.5                  256 
    316000   0.99721899     0.087637617   -3.1535569      1.490247       0.5234375            268 
    317000   0.94379101     0.18902067    -3.4681489      1.4109359      0.58203125           298 
    318000   1.014317      -0.10431907    -3.6242241      1.5165196      0.59960938           307 
    319000   0.95595596     0.05210296    -3.5341659      1.4292479      0.59765625           306 
    320000   0.93958536     0.25268645    -3.7994154      1.4050146      0.63085938           323 
    321000   1.016598      -0.017132799   -3.5836589      1.5198309      0.58789062           301 
    322000   0.93215576    -0.11512937    -3.5725911      1.3936643      0.59765625           306 
    323000   1.0454332      0.37125663    -3.1971164      1.5626087      0.55273438           283 
    324000   1.0168885     -0.11199234    -3.4909918      1.5201796      0.578125             296 
    325000   1.0243127      0.29297125    -3.5812761      1.5315445      0.609375             312 
    326000   1.0854047      0.064238058   -3.4439004      1.6225504      0.57226562           293 
    327000   0.98898148     0.034425813   -3.3499102      1.4783568      0.56640625           290 
    328000   0.95102936    -0.096505845   -3.5299121      1.421757       0.58203125           298 
    329000   1.0100757      0.020598067   -3.4378587      1.5099426      0.57226562           293 
    330000   1.0211926     -0.083484728   -3.3721439      1.526433       0.55859375           286 
    331000   0.99505985     0.38477406    -3.4724123      1.4876474      0.58984375           302 
    332000   1.085659       0.21112752    -3.3723795      1.622873       0.56640625           290 
    333000   0.93336428     0.061735948   -3.2601436      1.3951512      0.55859375           286 
    334000   0.98314974     0.068933638   -3.3732468      1.4697759      0.58203125           298 
    335000   1.0508135      0.076757532   -3.459114       1.5708952      0.578125             296 
    336000   1.0037282     -0.065991378   -3.4485306      1.5004712      0.57421875           294 
    337000   0.96504326     0.24777445    -3.5481432      1.4429548      0.61328125           314 
    338000   1.0200256      0.46914986    -3.6484759      1.5251812      0.61523438           315 
    339000   0.88335972    -0.12396431    -3.6243031      1.320779       0.60742188           311 
    340000   0.94438104     0.26561744    -3.6754136      1.4121309      0.62304688           319 
    341000   1.000769       0.26112258    -3.7348283      1.4964477      0.62304688           319 
    342000   1.0415128      0.036856484   -3.7583739      1.5574474      0.6328125            324 
    343000   0.84632935    -0.02400351    -3.6044753      1.2653453      0.59765625           306 
    344000   0.98145353     0.13647473    -3.492648       1.4672566      0.58398438           299 
    345000   1.0624469     -0.014802455   -3.5594654      1.5883582      0.5859375            300 
    346000   1.0080107      0.22002693    -3.6322995      1.5070909      0.59960938           307 
    347000   0.9676452      0.090954556   -3.4685605      1.4465971      0.58203125           298 
    348000   1.0010165      0.056330516   -3.624207       1.4966496      0.6015625            308 
    349000   1.0074041      0.25099756    -3.6434586      1.5062937      0.61328125           314 
    350000   0.92684759     0.2146198     -3.3532448      1.3853932      0.55664062           285 
    351000   1.0066642      0.12194425    -3.4628396      1.5049122      0.58007812           297 
    352000   0.94876064    -0.054160526   -3.5445419      1.4184749      0.59570312           305 
    353000   0.97299493    -0.092705283   -3.4569923      1.4544247      0.5625               288 
    354000   0.98001733    -0.11910945    -3.3822732      1.4649744      0.56835938           291 
    355000   1.009273       0.17633683    -2.9904372      1.5080642      0.50585938           259 
    356000   1.0348727     -0.017699313   -3.3816855      1.5469191      0.5625               288 
    357000   1.0337023     -0.22804816    -3.1867913      1.5448106      0.52734375           270 
    358000   0.94488125    -0.12097863    -3.6237913      1.4126901      0.59765625           306 
    359000   1.07425        0.19533979    -3.4983762      1.6059858      0.58398438           299 
    360000   1.0008057     -0.19107461    -3.3671016      1.4960141      0.56445312           289 
    361000   0.96685926     0.13169567    -3.2456901      1.445218       0.55859375           286 
    362000   0.95002816    -0.12784793    -3.4555255      1.4202116      0.57617188           295 
    363000   0.95331693    -0.10528154    -3.5090337      1.4251444      0.578125             296 
    364000   0.9502165      0.016646336   -3.4444526      1.4205257      0.58007812           297 
    365000   0.97835308     0.33884843    -3.4877913      1.4627181      0.59570312           305 
    366000   1.0152458     -0.032210635   -3.5123481      1.5177064      0.57617188           295 
    367000   0.99456691    -0.076718883   -3.4703138      1.4868442      0.58203125           298 
    368000   1.0557428      0.10326682    -3.7303905      1.5786499      0.62304688           319 
    369000   1.0089232     -0.093797317   -3.4830301      1.508272       0.578125             296 
    370000   1.0674211      0.065536588   -3.4350255      1.5956671      0.57226562           293 
    371000   1.019101      -0.076866549   -3.2431479      1.5230725      0.53515625           274 
    372000   1.0006343      0.24311845    -3.2695543      1.4956099      0.54882812           281 
    373000   1.0276419     -0.019112198   -3.3125489      1.5359379      0.54492188           279 
    374000   0.99720147     0.37418301    -3.4369122      1.4907827      0.58203125           298 
    375000   1.0565798     -0.035241927   -3.2413136      1.5792694      0.55273438           283 
    376000   0.98683055     0.021007749   -3.1303055      1.47466        0.51757812           265 
    377000   0.97580337    -0.14703768    -3.008144       1.4580318      0.50390625           258 
    378000   1.017979       0.098364134   -3.3213536      1.5215538      0.55078125           282 
    379000   1.0432899      0.1945418     -3.31363        1.5593657      0.54882812           281 
    380000   1.1402941     -0.13269948    -3.3179264      1.7042885      0.54296875           278 
    381000   1.0757125     -0.2494542     -3.6394016      1.6082783      0.59570312           305 
    382000   1.0378687      0.22065523    -3.4195319      1.5515258      0.57617188           295 
    383000   1.0106153     -0.01560327    -3.2773833      1.5105852      0.5546875            284 
    384000   1.098613       0.082858012   -3.2616152      1.6419918      0.54296875           278 
    385000   0.98623881     0.6042431     -3.1140272      1.4741675      0.55664062           285 
    386000   0.96022326    -0.17719121    -3.3142422      1.4352273      0.55078125           282 
    387000   0.95997768    -0.12243166    -3.6005379      1.4352913      0.6015625            308 
    388000   1.0814459      0.074641967   -3.5861458      1.6169697      0.609375             312 
    389000   0.89838217    -0.014933228   -3.5992605      1.3431258      0.59179688           303 
    390000   0.96995924    -0.11009399    -3.3113654      1.4498338      0.55664062           285 
    391000   0.96681186     0.39842523    -3.4697793      1.4455093      0.6015625            308 
    392000   1.1013778     -0.054053185   -3.4715457      1.6465042      0.58007812           297 
    393000   1.1004002      0.068897875   -3.5129808      1.6450798      0.58398438           299 
    394000   1.0304247     -0.094083444   -3.3943004      1.5401561      0.55078125           282 
    395000   0.96953694     0.20842054    -3.5878711      1.4495683      0.59960938           307 
    396000   1.0257194      0.029447036   -3.6943538      1.5336478      0.609375             312 
    397000   0.93813051    -0.04399421    -3.6875108      1.4026999      0.61132812           313 
    398000   1.009258       0.11028653    -3.534636       1.5089071      0.59375              304 
    399000   1.0070302      0.033612706   -3.5466089      1.50556        0.59179688           303 
    400000   1.0214579      0.05762035    -3.5455546      1.5271467      0.59375              304 
    401000   1.0089504      0.0022697136  -3.4168916      1.5082069      0.56640625           290 
    402000   0.99359728    -0.040448217   -3.5702112      1.4855094      0.59570312           305 
    403000   1.0164535      0.1588565     -3.3087141      1.5193862      0.5625               288 
    404000   0.9874373     -0.24546482    -3.5630368      1.4762023      0.58398438           299 
    405000   1.0923454      0.37938263    -3.3004641      1.6328485      0.56445312           289 
    406000   1.0037202     -0.017336742   -3.4354693      1.5004064      0.56835938           291 
    407000   0.99238379     0.2846562     -3.0990505      1.483103       0.53125              272 
    408000   1.0449245     -0.094273376   -3.3983112      1.5619255      0.56054688           287 
    409000   1.0172918      0.3399955     -3.4177013      1.5207298      0.57226562           293 
    410000   0.94160567     0.19608245    -3.5205838      1.4077777      0.59570312           305 
    411000   1.0858602      0.13530034    -3.6610769      1.6235698      0.609375             312 
    412000   0.9800073      0.20107969    -3.606958       1.4652536      0.60351562           309 
    413000   1.0115426      0.031304745   -3.4696566      1.512273       0.58789062           301 
    414000   1.0666708      0.31973692    -3.6814378      1.5949747      0.62109375           318 
    415000   1.0161163     -0.098514938   -3.7014443      1.5192893      0.609375             312 
    416000   1.016377       0.11855932    -3.6586709      1.5197256      0.61523438           315 
    417000   1.0067709      0.20526365    -3.732551       1.5054518      0.62695312           321 
    418000   0.98944907     0.41281785    -3.6355444      1.4795064      0.62109375           318 
    419000   0.94783241     0.24126187    -3.6430023      1.4172636      0.61914062           317 
    420000   1.0154005     -0.18515838    -3.337786       1.5176997      0.55078125           282 
    421000   1.0043645      0.19763606    -3.4021717      1.5015081      0.58398438           299 
    422000   0.92084773     0.055916828   -3.5899885      1.3766826      0.58789062           301 
    423000   0.9738091      0.57361351    -3.4772072      1.4559711      0.6015625            308 
    424000   1.0206945      0.085245757   -3.5282631      1.525972       0.58984375           302 
    425000   0.96839111     0.095171646   -3.3082885      1.4474539      0.55273438           283 
    426000   1.0079802      0.011920892   -3.3838134      1.5067386      0.56445312           289 
    427000   1.0138807     -0.17559178    -3.6884531      1.5159622      0.61132812           313 
    428000   1.0300611      0.4118707     -3.4685071      1.5400423      0.59765625           306 
    429000   0.98723215    -0.005419526   -3.7655859      1.4761915      0.62109375           318 
    430000   1.0227562      0.10912232    -3.5171349      1.5288804      0.5703125            292 
    431000   1.0258525      0.1109505     -3.5964718      1.5338149      0.60546875           310 
    432000   0.94287525     0.03564129    -3.6640487      1.4098513      0.61914062           317 
    433000   1.0109312      0.28692886    -3.5891439      1.5115052      0.60546875           310 
    434000   1.025552       0.008404199   -3.5789094      1.5333171      0.59960938           307 
    435000   1.1405974      0.17930505    -3.1234138      1.7044882      0.52148438           267 
    436000   0.99578972     0.082727612   -2.7191894      1.4869258      0.43164062           221 
    437000   0.98033009    -0.14384329    -2.9477544      1.4640456      0.4453125            228 
    438000   0.97382386    -0.049611623   -3.3986308      1.4556283      0.55859375           286 
    439000   0.95673072    -0.3628676     -3.4396762      1.4301645      0.56835938           291 
    440000   1.0564414     -0.082764849   -3.4818657      1.5792352      0.5703125            292 
    441000   0.97910571     0.32071008    -3.4309616      1.4637467      0.58398438           299 
    442000   0.95455538     0.056858128   -3.4199375      1.4270121      0.58007812           297 
    443000   0.87198595    -0.27911761    -3.6667214      1.3037045      0.59765625           306 
    444000   0.99743092     0.2138794     -3.2863682      1.491005       0.56835938           291 
    445000   0.96521966    -0.10739197    -3.4780227      1.4429382      0.578125             296 
    446000   0.92804979    -0.099135987   -3.283067       1.387103       0.546875             280 
    447000   0.93927172     0.077391784   -3.1889807      1.4038028      0.5390625            276 
    448000   1.0288612      0.0060137377  -3.3470345      1.5377801      0.546875             280 
    449000   0.89596557    -0.23842517    -3.1733523      1.3389523      0.52539062           269 
    450000   0.96081612     0.30211996    -3.4422479      1.4363716      0.58007812           297 
    451000   0.98700086     0.22327557    -3.5161039      1.4756472      0.59570312           305 
    452000   1.0327028      0.029266357   -3.6575204      1.544121       0.61328125           314 
    453000   0.95612123     0.38452139    -3.3965526      1.4293202      0.57617188           295 
    454000   0.97303917    -0.084937247   -3.5606993      1.4548045      0.59960938           307 
    455000   1.0565785      0.25699117    -3.1905641      1.5790411      0.53125              272 
    456000   1.0133752     -0.077069863   -3.4872248      1.5149274      0.578125             296 
    457000   1.1150515      0.34706935    -3.3362733      1.6668097      0.56640625           290 
    458000   0.98975354     0.065176032   -3.4575404      1.4795633      0.57226562           293 
    459000   1.0378551      0.24980575    -3.381013       1.5513393      0.55859375           286 
    460000   1.0309637      0.11741301    -3.6805861      1.5415361      0.61523438           315 
    461000   0.97967561     0.56379602    -3.4522957      1.4646953      0.59570312           305 
    462000   0.99078789     0.10046373    -3.6765441      1.4814336      0.61132812           313 
    463000   1.0042305      0.10236331    -3.4849029      1.5013412      0.58789062           301 
    464000   0.9860698      0.0097048755  -3.4493106      1.4740393      0.5703125            292 
    465000   1.1033034      0.10223327    -3.3732636      1.6492087      0.5625               288 
    466000   1.0363785     -0.035083611   -3.4838495      1.5492439      0.5703125            292 
    467000   0.88023473    -0.22835469    -3.2973425      1.31567        0.55078125           282 
    468000   1.0714801      0.21816515    -3.4692159      1.6017719      0.57617188           295 
    469000   1.0680384      0.48189449    -3.6383076      1.5970822      0.62890625           322 
    470000   1.0275783      0.22365672    -3.5518653      1.5363631      0.6015625            308 
    471000   1.003049      -0.087974176   -3.5257191      1.4996242      0.59375              304 
    472000   0.92579276    -0.090150129   -3.3352964      1.3837118      0.54492188           279 
    473000   1.0257816      0.14234453    -3.3943122      1.5334388      0.57421875           294 
    474000   0.96957995     0.1975324     -3.5571991      1.449522       0.5859375            300 
    475000   0.91174393     0.61266482    -3.4374799      1.3630723      0.58789062           301 
    476000   1.0127789      0.010374751   -3.4478017      1.5140361      0.578125             296 
    477000   1.008756      -0.12367788    -3.3068186      1.5076117      0.53515625           274 
    478000   1.0101989      0.49378034    -3.4781148      1.5103464      0.59765625           306 
    479000   1.0563184      0.1665029     -3.6490279      1.5794314      0.61328125           314 
    480000   0.99916393     0.16977577    -3.6885871      1.494003       0.6171875            316 
    481000   1.0272553      0.19026024    -3.6456971      1.5359756      0.61328125           314 
    482000   0.95459705     0.15536172    -3.5304385      1.4272314      0.59960938           307 
    483000   0.94192761     0.08672821    -3.2046029      1.4077907      0.54101562           277 
    484000   1.0228459     -0.18588699    -3.200274       1.5284791      0.51757812           265 
    485000   1.0066635     -0.16824188    -3.327338       1.5046024      0.546875             280 
    486000   1.0421366     -0.06218586    -3.2103974      1.5572157      0.50976562           261 
    487000   1.0431887      0.15745154    -3.0320526      1.5588558      0.515625             264 
    488000   0.97039634     0.21245487    -3.3032932      1.4505227      0.56054688           287 
    489000   0.99247587     0.11821094    -3.5442424      1.4837843      0.58984375           302 
    490000   1.0066836     -0.0063608838  -3.3388164      1.5048184      0.56640625           290 
    491000   0.93846629     0.05022195    -3.3817533      1.4029276      0.57617188           295 
    492000   0.96737216    -0.03123667    -3.6188701      1.446347       0.6015625            308 
    493000   0.98407984    -0.12530648    -3.5898725      1.47128        0.59570312           305 
    494000   1.0289107     -0.12176925    -3.251632       1.5376919      0.53125              272 
    495000   1.0275875      0.026499112   -3.36987        1.5358566      0.54492188           279 
    496000   0.97890463    -0.1651547     -3.4614083      1.463446       0.58398438           299 
    497000   1.0346561      0.40100717    -3.6388173      1.5470415      0.61328125           314 
    498000   1.0465706      0.33437969    -3.5542766      1.5647424      0.59960938           307 
    499000   0.99320424     0.11900158    -3.6535144      1.4850313      0.609375             312 
    500000   1.0003398      0.20001566    -3.6795206      1.4956849      0.60742188           311 
    501000   0.96262559     0.24178646    -3.4669102      1.4391412      0.58789062           301 
    502000   1.0129842      0.21981914    -3.3582852      1.5141819      0.56054688           287 
    503000   1.0592725     -0.026719588   -3.2244072      1.5830457      0.52929688           271 
    504000   1.0003311      0.38089837    -3.519022       1.4956249      0.6015625            308 
    505000   1.0804348      0.26246125    -3.5415841      1.6153211      0.59375              304 
    506000   0.98364764     0.20982544    -3.3399684      1.4704011      0.56835938           291 
    507000   0.92025457     0.16079683    -2.913386       1.3748158      0.484375             248 
    508000   0.88558251    -0.15773198    -3.0115278      1.3228157      0.46679688           239 
    509000   1.0633062      0.18566444    -3.4050394      1.589402       0.56054688           287 
    510000   0.98511204     0.11078145    -3.1780585      1.4723718      0.54492188           279 
    511000   1.0571445      0.021939774   -3.4687222      1.5803415      0.57617188           295 
    512000   1.0262247      0.099254355   -3.3458018      1.5340834      0.57226562           293 
    513000   1.0076989      0.16778229    -3.3644131      1.5063362      0.56640625           290 
    514000   1.0503386     -0.068484998   -3.3568156      1.5700374      0.5625               288 
    515000   0.94872759    -0.10887464    -3.4749582      1.4183792      0.58984375           302 
    516000   0.96433894     0.17043014    -3.4123671      1.4416544      0.58203125           298 
    517000   1.0410478      0.34849307    -3.4467798      1.5563138      0.58007812           297 
    518000   0.9796935     -0.15757004    -3.1599629      1.4640773      0.52539062           269 
    519000   1.0277686     -0.067510878   -3.2414937      1.5360057      0.53320312           273 
    520000   0.89292131     0.1256359     -3.2263012      1.3343467      0.51953125           266 
    521000   1.0673663      0.32757186    -3.1483551      1.5952062      0.53515625           274 
    522000   1.0733491      0.11786721    -3.4163085      1.6045098      0.5703125            292 
    523000   1.0239999      0.21054413    -3.5341166      1.5308968      0.58789062           301 
    524000   0.97630629    -0.10011047    -3.2861773      1.4591916      0.54296875           278 
    525000   1.0101472      0.23187493    -3.2908794      1.5098285      0.54882812           281 
    526000   1.0205487     -0.069969202   -3.2112106      1.525195       0.53125              272 
    527000   1.0096615      0.28124117    -3.2653045      1.5090248      0.54101562           277 
    528000   0.97635544     0.12311894    -3.1951244      1.4592076      0.53710938           275 
    529000   1.0287331     -0.070415781   -3.1843503      1.5375087      0.5390625            276 
    530000   1.0062125     -0.15729944    -3.407139       1.5040043      0.5546875            284 
    531000   0.93110246     0.063385134   -3.2562388      1.3916834      0.54882812           281 
    532000   1.0053656      0.21436871    -3.2625065      1.5026041      0.54101562           277 
    533000   0.95972504     0.040876457   -3.3547589      1.4345716      0.56054688           287 
    534000   0.93777964    -0.077400459   -3.3457041      1.4016635      0.54882812           281 
    535000   0.95882299    -0.067928024   -3.3738962      1.4332579      0.56445312           289 
    536000   0.93085998    -0.057084359   -3.6750584      1.3918573      0.61523438           315 
    537000   1.0314958      0.1100923     -3.5296784      1.5420863      0.5859375            300 
    538000   0.99194754     0.13155241    -3.4638396      1.4829283      0.58203125           298 
    539000   1.0525255      0.25899656    -3.5486227      1.5736623      0.6015625            308 
    540000   0.91023272    -0.27942324    -3.4589206      1.3606083      0.5625               288 
    541000   1.0250498      0.16033079    -3.2683246      1.5321222      0.55078125           282 
    542000   0.95032991     0.11185445    -3.4167942      1.4206952      0.58007812           297 
    543000   0.97907085     0.11146073    -3.5878468      1.4638535      0.60351562           309 
    544000   1.0112844      0.15157727    -3.5509867      1.5119202      0.59179688           303 
    545000   1.0377459      0.12711823    -3.3009542      1.5511761      0.55859375           286 
    546000   0.94935846    -0.011393144   -3.5672652      1.4193687      0.59570312           305 
    547000   0.92553597    -0.18498747    -3.3619578      1.3835167      0.56640625           290 
    548000   0.97447396     0.22885636    -3.5740967      1.457026       0.609375             312 
    549000   1.0151249      0.19338816    -3.495273       1.5176619      0.59179688           303 
    550000   0.96761959     0.20679321    -3.7215072      1.4469497      0.6328125            324 
    551000   1.0478049      0.22810261    -3.572356       1.5666209      0.60351562           309 
    552000   1.0393674      0.2270776     -3.4089589      1.5538017      0.58007812           297 
    553000   0.94616982    -0.090713393   -3.4612998      1.4144921      0.58203125           298 
    554000   0.97546156    -0.12836579    -3.3761145      1.4581985      0.57226562           293 
    555000   0.99413352     0.12755885    -3.3795833      1.4860045      0.56054688           287 
    556000   0.94955851     0.0040248807  -3.2357853      1.4193225      0.5546875            284 
    557000   0.98645824     0.22352057    -3.3016022      1.4744955      0.55664062           285 
    558000   1.0010034     -0.24461715    -3.15746        1.4957741      0.51171875           262 
    559000   0.97954733     0.42550757    -3.401892       1.4644395      0.58789062           301 
    560000   1.0119574      0.18234912    -3.2575682      1.5126471      0.56054688           287 
    561000   0.96367884    -0.10402336    -3.0716849      1.439666       0.48242188           247 
    562000   1.0573977      0.12544834    -3.2068265      1.5801338      0.51953125           266 
    563000   0.96957924     0.24348771    -3.5662102      1.4496773      0.60546875           310 
    564000   1.0561189      0.015724447   -3.5231608      1.5789843      0.59570312           305 
    565000   1.0868048      0.45132678    -3.7085259      1.6251601      0.63085938           323 
    566000   1.0598321      0.01049466    -3.5088412      1.5844489      0.5859375            300 
    567000   1.0354845     -0.13320007    -3.7437295      1.5483115      0.6171875            316 
    568000   1.0255084      0.17947087    -3.6694613      1.5333792      0.61523438           315 
    569000   0.98586515    -0.069553183   -3.5568825      1.4739333      0.59375              304 
    570000   1.0185083      0.040851381   -3.4691016      1.5226185      0.58007812           297 
    571000   1.0036306      0.044016006   -3.6547257      1.5005897      0.60546875           310 
    572000   1.0156384      0.2120073     -3.5503251      1.5184297      0.59179688           303 
    573000   0.92525412    -0.20844861    -3.6102664      1.3832703      0.58789062           301 
    574000   0.88583733     0.21535503    -3.658554       1.3245243      0.61328125           314 
    575000   0.93938223    -0.27595742    -3.8755656      1.4047377      0.63476562           325 
    576000   0.95543984     0.23108756    -3.6906738      1.4286245      0.6171875            316 
    577000   0.9636481     -0.039763491   -3.5274661      1.4406858      0.58984375           302 
    578000   0.93497039     0.20579852    -3.7599144      1.3981001      0.62890625           322 
    579000   1.0619273      0.049810723   -3.5681823      1.5876854      0.59765625           306 
    580000   0.9946186     -0.16639632    -3.1454593      1.486298       0.51757812           265 
    581000   0.93842806     0.061286655   -3.4531495      1.4028214      0.5703125            292 
    582000   1.0313128      0.05437633    -3.4124358      1.5415977      0.5625               288 
    583000   1.0032129     -0.062784713   -3.6349401      1.4998693      0.59375              304 
    584000   0.94080541     0.15832039    -3.3376538      1.406325       0.56445312           289 
    585000   1.0238231      0.14266894    -3.3653756      1.5303271      0.5546875            284 
    586000   1.1217296      0.033666571   -3.6153535      1.6770595      0.59375              304 
    587000   1.0136041      0.19172956    -3.5087017      1.5154698      0.6015625            308 
    588000   1.007011       0.11608325    -3.3773625      1.5053078      0.56640625           290 
    589000   1.0250639      0.12797126    -3.8076646      1.5328648      0.63476562           325 
    590000   0.92452192     0.13041527    -3.8452859      1.3825677      0.64257812           329 
    591000   1.0091035      0.51770969    -3.6592029      1.5090122      0.63671875           326 
    592000   0.97919783    -0.27102691    -3.7090638      1.464119       0.61328125           314 
    593000   1.030927       0.3184406     -3.4761776      1.5412699      0.58984375           302 
    594000   0.95280612    -0.1038093     -3.4435004      1.4243644      0.57617188           295 
    595000   1.0269597      0.034384238   -3.2358318      1.5347129      0.52539062           269 
    596000   0.94173012     0.25017058    -3.4288075      1.4078067      0.57617188           295 
    597000   0.98278967     0.20090487    -3.7239755      1.469592       0.62695312           321 
    598000   0.97524266     0.1513975     -3.9622936      1.4585231      0.65820312           337 
    599000   0.99660666     0.18526296    -3.7403467      1.490209       0.62109375           318 
    600000   0.98012871    -0.1567492     -3.6250635      1.4653087      0.58789062           301 
    601000   0.97158005     0.32493733    -3.46274        1.4524796      0.58203125           298 
    602000   1.0027791      0.22097476    -3.3224336      1.4989094      0.55859375           286 
    603000   1.0267686      0.34813468    -3.5760779      1.5351524      0.6015625            308 
    604000   0.96844889     0.089379134   -3.5058682      1.4477656      0.578125             296 
    605000   0.99575353     0.13056295    -3.3691141      1.4884078      0.55859375           286 
    606000   0.89999158    -0.14382221    -3.3985336      1.3452999      0.5625               288 
    607000   0.97606447    -0.393664      -3.5135324      1.4590827      0.5703125            292 
    608000   0.97085559    -0.2059833     -3.4115919      1.4512443      0.56445312           289 
    609000   0.96516842     0.065848936   -3.4617774      1.4428616      0.578125             296 
    610000   0.98459656     0.43983478    -3.5366045      1.4721913      0.61328125           314 
    611000   1.0801166      0.165944      -3.483617       1.6148101      0.58984375           302 
    612000   1.0232836     -0.2100498     -3.5920027      1.5298763      0.59375              304 
    613000   0.92059756     0.21053875    -3.4056954      1.3762153      0.57617188           295 
    614000   0.96163461     0.14879248    -3.562117       1.4376756      0.58984375           302 
    615000   1.0204892     -0.0076110802  -3.2454689      1.5251267      0.53320312           273 
    616000   0.99452224    -0.023374509   -3.3190881      1.4864934      0.55078125           282 
    617000   1.0325433      0.19337457    -3.3141078      1.5433805      0.55664062           285 
    618000   1.0444337     -0.15738231    -3.3669819      1.5612107      0.5625               288 
    619000   0.93372368     0.193548      -3.5582321      1.3960529      0.60351562           309 
    620000   1.0008665      0.018197562   -3.3114601      1.495976       0.55078125           282 
    621000   0.98856123    -0.24104907    -3.4355709      1.477781       0.57226562           293 
    622000   1.083183      -0.31232182    -3.7288127      1.6195836      0.61132812           313 
    623000   1.0019467      0.29379521    -3.0820462      1.4973122      0.5234375            268 
    624000   1.0182835     -0.035490084   -3.3408502      1.5220846      0.55859375           286 
    625000   0.95726885     0.024618733   -3.4546228      1.4311169      0.5859375            300 
    626000   0.96681285     0.1245547     -3.4161752      1.4453033      0.57617188           295 
    627000   1.0732152      0.28269617    -3.2521216      1.6040528      0.54492188           279 
    628000   0.96736073     0.06571267    -3.3913404      1.4461056      0.57421875           294 
    629000   0.99326965     0.24227517    -3.2766728      1.4846211      0.55078125           282 
    630000   0.93875456     0.0084559152  -3.1582336      1.4028776      0.5234375            268 
    631000   0.98508793    -0.070536456   -3.0125414      1.4717214      0.48828125           250 
    632000   0.9622039      0.1714131     -3.363857       1.4382058      0.55273438           283 
    633000   1.0524555      0.36690199    -3.3676164      1.5732952      0.57226562           293 
    634000   1.0839325      0.144954      -3.4263276      1.6204059      0.578125             296 
    635000   1.0218556      0.33060784    -3.4610482      1.5277248      0.59179688           303 
    636000   1.0004981      0.24419764    -3.6153258      1.4959524      0.61132812           313 
    637000   0.92916171    -0.23887567    -3.5641725      1.3891122      0.58789062           301 
    638000   1.0119332     -0.16981795    -3.404443       1.5125551      0.5546875            284 
    639000   1.0820152      0.049810879   -3.3566221      1.6173677      0.56054688           287 
    640000   0.92236361     0.072885923   -3.4161557      1.3787581      0.56445312           289 
    641000   1.014042       0.36709235    -3.6426975      1.5162647      0.61914062           317 
    642000   1.022959      -0.091999945   -3.4869166      1.5293237      0.5859375            300 
    643000   0.94269731     0.12936227    -3.600728       1.4094992      0.60742188           311 
    644000   1.0301115     -0.050340844   -3.4202731      1.5399294      0.57617188           295 
    645000   1.0408453      0.045785459   -3.4142615      1.5560111      0.58007812           297 
    646000   1.0214609      0.13208315    -3.4353333      1.5270325      0.58007812           297 
    647000   0.93965822    -0.36827734    -3.5247651      1.4048356      0.59179688           303 
    648000   0.97026117     0.55428741    -3.5191075      1.4506511      0.59960938           307 
    649000   0.98354936    -0.17754721    -3.5338639      1.4704389      0.58984375           302 
    650000   1.0185615      0.28427511    -3.4084351      1.5226806      0.578125             296 
    651000   0.95536867    -0.069419008   -3.4670866      1.4281787      0.57421875           294 
    652000   1.0683441      0.083865053   -3.3442248      1.5970468      0.57226562           293 
    653000   1.0246597      0.046993674   -3.549449       1.5319169      0.59179688           303 
    654000   0.99858755     0.23099036    -3.5269026      1.4929863      0.59765625           306 
    655000   0.97445043    -0.035437669   -3.7642809      1.4571221      0.62695312           321 
    656000   1.0077964      0.34942908    -3.6036399      1.5068494      0.609375             312 
    657000   0.93703877     0.1582205     -3.4907799      1.4008256      0.58007812           297 
    658000   1.0190459      0.15275821    -3.4883616      1.5234566      0.58398438           299 
    659000   0.94767601     0.10431062    -3.2434277      1.4164372      0.546875             280 
    660000   1.0255139      0.039916993   -3.3835422      1.5328734      0.55664062           285 
    661000   1.0287736      0.29143693    -3.4955598      1.5381009      0.59570312           305 
    662000   0.94441825     0.1230288     -3.3609512      1.4117085      0.5625               288 
    663000   1.032243       0.11159779    -3.4280482      1.5431158      0.57617188           295 
    664000   0.95518672     0.11271722    -3.3039118      1.4275888      0.5390625            276 
    665000   1.0056991     -0.053039485   -3.4985347      1.5034522      0.578125             296 
    666000   1.0347223      0.084115072   -3.6923658      1.5472026      0.62109375           318 
    667000   1.0363446     -0.12329246    -3.5138771      1.5492828      0.58007812           297 
    668000   1.0113756     -0.096972297   -3.5224829      1.5120066      0.5859375            300 
    669000   1.0197985     -0.10451121    -3.4164866      1.5243863      0.5625               288 
    670000   1.0475912      0.19198641    -3.2327602      1.5658343      0.55273438           283 
    671000   1.0261992      0.14524539    -3.4997254      1.5341334      0.58203125           298 
    672000   1.0432271     -0.015102202   -3.4505578      1.559426       0.56445312           289 
    673000   1.0207139      0.41633947    -3.5464705      1.5261636      0.609375             312 
    674000   1.0337498      0.23181027    -3.4919435      1.5453505      0.57421875           294 
    675000   0.96473752     0.30773326    -3.6889641      1.4425699      0.62304688           319 
    676000   1.0702044      0.17838324    -3.5086197      1.6000776      0.59960938           307 
    677000   1.0414244      0.072637301   -3.5280662      1.5569468      0.58789062           301 
    678000   0.99406424     0.20583671    -3.4406239      1.4860927      0.58203125           298 
    679000   1.0470413      0.20420043    -3.406851       1.565238       0.57617188           295 
    680000   0.9500984     -0.17916111    -3.3527681      1.4200759      0.54882812           281 
    681000   0.99416306    -0.050070745   -3.7299788      1.4865404      0.61914062           317 
    682000   0.95521349     0.20111303    -3.5245466      1.4281225      0.59570312           305 
    683000   1.0045215      0.15878093    -3.3955343      1.5015864      0.56640625           290 
    684000   0.94916038    -0.2280183     -3.4727661      1.4189143      0.57617188           295 
    685000   0.91913791     0.01323495    -3.6686408      1.37433        0.61523438           315 
    686000   0.94622597     0.092117039   -3.5762858      1.4147006      0.59765625           306 
    687000   1.0338775     -0.16812076    -3.4177122      1.5453939      0.55859375           286 
    688000   1.0029772     -0.0077546368  -3.5288425      1.4994841      0.58984375           302 
    689000   0.98693109     0.19272662    -3.5263068      1.4755108      0.59179688           303 
    690000   0.92956948    -0.31554959    -3.5934116      1.3897675      0.59375              304 
    691000   0.97766532     0.058845234   -3.3800942      1.4614757      0.5703125            292 
    692000   0.9535509      0.032681084   -3.6072969      1.4257124      0.60546875           310 
    693000   0.98215625    -0.11846108    -3.6992308      1.4685425      0.61328125           314 
    694000   1.0531314      0.024928224   -3.5846419      1.5745007      0.59375              304 
    695000   0.96025961    -0.18949082    -3.3831903      1.4353531      0.55859375           286 
    696000   0.9945809      0.065756098   -3.2925833      1.4865997      0.55273438           283 
    697000   1.0020967      0.027113612   -3.4584666      1.4978893      0.55859375           286 
    698000   0.95530074     0.010876174   -3.5418984      1.4282374      0.59375              304 
    699000   0.88473937    -0.053140607   -3.4595699      1.3225485      0.56835938           291 
    700000   0.98730659     0.027403386   -3.5045363      1.4760397      0.58789062           301 
    701000   1.0361174      0.36539214    -3.2377372      1.548545       0.5390625            276 
    702000   0.93513752     0.23677419    -3.1008975      1.397393       0.515625             264 
    703000   1.0454818      0.050456344   -3.321586       1.5628336      0.56835938           291 
    704000   1.0439476     -0.034599253   -3.3549635      1.5604841      0.5625               288 
    705000   0.91228674    -0.098167891   -3.4316634      1.3638381      0.58203125           298 
    706000   0.95588636    -0.13426112    -3.4148523      1.4288682      0.56445312           289 
    707000   1.0564341     -0.14283305    -3.537924       1.579369       0.5859375            300 
    708000   1.0106844      0.16500366    -3.3707975      1.5107808      0.56445312           289 
    709000   0.98546815    -0.046317882   -3.6115393      1.4733237      0.59179688           303 
    710000   1.0172823      0.014133894   -3.4672531      1.5207508      0.57617188           295 
    711000   0.97819147     0.10360279    -3.3887512      1.462245       0.56835938           291 
    712000   0.97260636    -0.055133627   -3.7132639      1.4542781      0.61523438           315 
    713000   1.0073691      0.064509786   -3.6305017      1.5061792      0.60546875           310 
    714000   0.9414032      0.23723087    -3.6909556      1.4077057      0.62695312           321 
    715000   1.0547888     -0.10484568    -3.4860063      1.5768016      0.57421875           294 
    716000   1.0294776      0.25806497    -3.3444662      1.5388731      0.56445312           289 
    717000   0.97718068     0.034425239   -3.3400521      1.4606459      0.55859375           286 
    718000   0.99444927    -0.098372656   -3.0207418      1.4859367      0.5078125            260 
    719000   0.94256427     0.19563477    -3.3924224      1.4089711      0.56640625           290 
    720000   1.0324535      0.16102502    -3.5365621      1.5435008      0.58398438           299 
    721000   0.92599953     0.21095016    -3.5028875      1.3843538      0.58398438           299 
    722000   1.0125204     -0.13689755    -3.3794208      1.5135794      0.5703125            292 
    723000   0.99129309    -0.095898439   -3.2730573      1.4816101      0.54492188           279 
    724000   1.0317648      0.32812754    -3.4696259      1.5424538      0.58203125           298 
    725000   0.93768376    -0.1211803     -3.4770581      1.4018215      0.58398438           299 
    726000   1.0017104      0.34342536    -3.5191287      1.4975902      0.58984375           302 
    727000   1.0163734      0.28893472    -3.4455637      1.5193921      0.57617188           295 
    728000   1.0690232      0.20408451    -3.3208225      1.597928       0.55859375           286 
    729000   0.91529547    -0.09556062    -3.5170633      1.3683819      0.58789062           301 
    730000   1.0278742     -0.29789503    -3.3851225      1.5364764      0.56445312           289 
    731000   1.036166       0.10848614    -3.5394349      1.5491698      0.59765625           306 
    732000   0.94266792     0.2210928     -3.4110544      1.4092569      0.58203125           298 
    733000   0.98141569    -0.20199242    -3.4139568      1.4670297      0.56445312           289 
    734000   1.0407113      0.33953866    -3.5722915      1.5559986      0.6015625            308 
    735000   1.0353768      0.22855212    -3.4686253      1.5479565      0.59375              304 
    736000   0.99808087    -0.04387005    -3.553463       1.4921309      0.5859375            300 
    737000   1.0218214      0.075640059   -3.4631865      1.5276058      0.58398438           299 
    738000   1.0237139      0.19549241    -3.2602426      1.5300273      0.54101562           277 
    739000   1.0133694     -0.088056184   -3.2233568      1.514606       0.54492188           279 
    740000   0.96874651     0.37738375    -3.5026139      1.4482435      0.58203125           298 
    741000   1.0099892     -0.270494      -3.463431       1.5097776      0.56835938           291 
    742000   0.9201112      0.12238816    -3.387543       1.3754402      0.5703125            292 
    743000   1.0469902      0.10523174    -3.5837025      1.565353       0.59765625           306 
    744000   1.0903983      0.21404602    -3.4984689      1.6301455      0.5859375            300 
    745000   1.0105875      0.25554305    -3.4313297      1.5107772      0.58007812           297 
    746000   0.99054497    -0.14891717    -3.673618       1.4810399      0.60742188           311 
    747000   0.93614592     0.12108876    -3.82047        1.3999246      0.63867188           327 
[...]
   1972000   1.0234329      0.04399181    -3.5180995      1.5300661      0.58984375           302 
   1973000   0.99991007     0.038440964   -3.5137688      1.4948822      0.58789062           301 
   1974000   0.96062099     0.0075616493  -3.6677626      1.4363425      0.61328125           314 
   1975000   0.97156601     0.18148802    -3.6842061      1.4527225      0.61523438           315 
   1976000   1.0094206      0.020577643   -3.4379629      1.5089632      0.57226562           293 
   1977000   1.001918      -0.32869597    -3.534056       1.4978674      0.5859375            300 
   1978000   1.0338187      0.14392144    -3.5031017      1.5455242      0.58203125           298 
   1979000   1.0043446      0.04347479    -3.4744958      1.5014952      0.5859375            300 
   1980000   1.0378454      0.21324057    -3.4430854      1.5515615      0.58398438           299 
   1981000   1.0199756     -0.21072293    -3.6365176      1.5249961      0.6015625            308 
   1982000   0.96523679     0.21342021    -3.4874756      1.4431544      0.6015625            308 
   1983000   1.0824623      0.32531044    -3.7973108      1.618728       0.63867188           327 
   1984000   1.0346194      0.025174816   -3.6436689      1.5469229      0.60546875           310 
   1985000   0.96366767     0.033610015   -3.6605551      1.440898       0.61328125           314 
   1986000   1.0414791      0.23364965    -3.193807       1.5564963      0.53320312           273 
   1987000   0.94924729    -0.21759207    -3.1138673      1.418518       0.51953125           266 
   1988000   1.0613711     -0.16883297    -3.2646235      1.5862883      0.5390625            276 
   1989000   1.0059757      0.46333431    -3.1798074      1.5035744      0.546875             280 
   1990000   0.95499122     0.13644729    -3.4998504      1.4278207      0.59960938           307 
   1991000   0.93921012     0.20896489    -2.8051649      1.4028958      0.46484375           238 
   1992000   1.0119551      0.030382355   -2.9142725      1.5120033      0.5                  256 
   1993000   1.0259745      0.13491218    -3.3411255      1.533485       0.54882812           281 
   1994000   1.0098192      0.18470531    -3.3268078      1.5094509      0.56054688           287 
   1995000   1.0969502     -0.1829718     -3.4122638      1.6397318      0.56445312           289 
   1996000   1.0043095      0.0090645939  -3.6081014      1.501525       0.59570312           305 
   1997000   1.050644       0.40184289    -3.4376363      1.5707302      0.58789062           301 
   1998000   0.9281983      0.32661614    -3.5443724      1.3878206      0.60742188           311 
   1999000   1.0601557      0.2688086     -3.6627009      1.5852011      0.6171875            316 
   2000000   0.98553944     0.28096839    -3.5519076      1.4734622      0.59570312           305 
   2001000   0.99775696     0.35404416    -3.6077738      1.4919142      0.61914062           317 
   2002000   0.98415684    -0.13822551    -3.6620778      1.4714885      0.60742188           311 
   2003000   1.0335765      0.15719658    -3.215287       1.5449628      0.56054688           287 
   2004000   0.99585353     0.33830867    -3.321512       1.4885936      0.5625               288 
   2005000   1.0111732      0.31756019    -3.5660258      1.5118511      0.60351562           309 
   2006000   0.98958908     0.21225385    -3.4138318      1.4792473      0.56445312           289 
   2007000   0.97097559     0.15278334    -3.4538642      1.4515759      0.58203125           298 
   2008000   1.0736365      0.15614309    -3.3951167      1.6049205      0.56835938           291 
   2009000   0.93778869    -0.19322807    -3.48451        1.4019307      0.578125             296 
   2010000   1.03872        0.0010662481  -3.5114085      1.5528864      0.5859375            300 
   2011000   1.0310032     -0.11238438    -3.2903202      1.5408606      0.53515625           274 
   2012000   1.0870587      0.37975949    -3.5400398      1.6252767      0.59960938           307 
   2013000   0.93029749    -0.019389695   -3.360476       1.3906009      0.5625               288 
   2014000   1.0063659      0.021406199   -3.5499512      1.5045338      0.58789062           301 
   2015000   1.0594696      0.16471182    -3.1985169      1.5834043      0.53515625           274 
   2016000   1.0738255     -0.023119758   -3.574646       1.6054398      0.59375              304 
   2017000   1.0663096     -0.13272954    -3.5015044      1.5940971      0.58203125           298 
   2018000   0.97769218    -0.1046728     -3.5691407      1.4617613      0.59960938           307 
   2019000   0.94375657    -0.14857755    -3.5539971      1.4109003      0.58398438           299 
   2020000   1.0336596      0.21162392    -3.5000146      1.5453038      0.58398438           299 
   2021000   0.99210595    -0.22279068    -3.1581501      1.4825853      0.52148438           267 
   2022000   0.99897304    -0.094417339   -3.5673363      1.4935142      0.59179688           303 
   2023000   1.0537951     -0.031320525   -3.774278       1.5757989      0.63085938           323 
   2024000   1.0105373      0.25277894    -3.3633321      1.510506       0.55859375           286 
   2025000   0.97300511     0.18936129    -3.6756001      1.454918       0.62109375           318 
   2026000   0.89706574     0.19743303    -3.5395563      1.341143       0.58984375           302 
   2027000   1.00483       -0.21057131    -3.2440917      1.5017441      0.53515625           274 
   2028000   1.0149852      0.064188091   -2.8950544      1.5162124      0.47460938           243 
   2029000   0.94397971    -0.16407204    -3.1945202      1.4107446      0.52929688           271 
   2030000   0.89828188     0.010369448   -3.2871352      1.342695       0.55664062           285 
   2031000   0.9311057      0.13306081    -3.5080961      1.3920185      0.58789062           301 
   2032000   0.92589261    -0.12834217    -3.4790356      1.3841627      0.58007812           297 
   2033000   0.97144998    -0.00047692052 -3.683167       1.4525637      0.6171875            316 
   2034000   0.96952931     0.070587759   -3.3476658      1.4491732      0.5546875            284 
   2035000   0.895384       0.20648226    -3.222279       1.3382964      0.54882812           281 
   2036000   0.96478281     0.23304673    -3.3285391      1.4421142      0.55859375           286 
   2037000   0.98739242    -0.09414665    -3.5764844      1.4761352      0.58398438           299 
   2038000   1.0631708      0.17770112    -3.4809253      1.5893685      0.578125             296 
   2039000   0.95506766     0.20238819    -3.3243968      1.4276444      0.56445312           289 
   2040000   0.99308053     0.46477235    -3.3552195      1.4845541      0.57421875           294 
   2041000   1.0042811      0.0016979888  -3.628734       1.5015779      0.60742188           311 
   2042000   1.0487121      0.36837048    -3.4308094      1.5678246      0.5859375            300 
   2043000   1.058457       0.28102145    -3.7308273      1.5827241      0.625                320 
   2044000   1.0084996      0.17668999    -3.4199366      1.5076388      0.578125             296 
   2045000   1.0359326     -0.083320061   -3.6098097      1.5488042      0.59570312           305 
   2046000   1.0228114      0.066676347   -3.0610404      1.5280803      0.48828125           250 
   2047000   0.89367844    -0.3911242     -3.2533538      1.3355528      0.52734375           270 
   2048000   1.0045593      0.1998148     -3.1660824      1.5014766      0.54882812           281 
   2049000   0.96902534     0.074364108   -3.0884195      1.4479902      0.51171875           262 
   2050000   0.90373804     0.10537885    -3.3593812      1.3509804      0.57226562           293 
   2051000   1.0035688      0.11231175    -3.3370484      1.500108       0.56054688           287 
   2052000   1.0014475      0.28824075    -3.3216924      1.4969189      0.55859375           286 
   2053000   1.0198525      0.28151815    -3.3145238      1.5244854      0.56445312           289 
   2054000   0.96121496    -0.2502819     -3.5334505      1.4370482      0.58984375           302 
   2055000   1.0380185      0.10882169    -3.3679465      1.5516025      0.56054688           287 
   2056000   1.0762649      0.24780478    -3.556823       1.6091387      0.59960938           307 
   2057000   0.9789068      0.12261576    -3.4650432      1.4634493      0.58398438           299 
   2058000   1.0298895      0.18089393    -3.4378601      1.5396152      0.578125             296 
   2059000   0.99744798    -0.029637496   -3.4042791      1.4910305      0.56835938           291 
   2060000   0.96504172     0.094350936   -3.432924       1.4427212      0.58398438           299 
   2061000   0.9936218      0.093439375   -3.3220253      1.4852396      0.56054688           287 
   2062000   0.98964752    -0.12327943    -3.0000365      1.4786726      0.5                  256 
   2063000   0.97368654    -0.0077553611  -3.2905564      1.4553136      0.546875             280 
   2064000   0.94758874    -0.089679715   -3.3109694      1.4163427      0.55078125           282 
   2065000   0.97920373     0.064070306   -3.3500648      1.4637582      0.56835938           291 
   2066000   1.1018368      0.068117345   -3.4973066      1.6471904      0.58007812           297 
   2067000   1.0575722      0.06146943    -3.4600116      1.5809808      0.57617188           295 
   2068000   0.9797675     -0.099120276   -3.4439338      1.4645483      0.5625               288 
   2069000   1.0423814     -0.014702859   -3.4123891      1.5582538      0.57421875           294 
   2070000   0.92348274     0.28618476    -3.3632102      1.3804143      0.5625               288 
   2071000   0.99154962     0.11603927    -3.3860671      1.4822655      0.57421875           294 
   2072000   0.96785754     0.032093842   -3.1091717      1.4463692      0.5234375            268 
   2073000   0.92978554    -0.16349245    -3.4040904      1.3898691      0.56640625           290 
   2074000   1.0818184     -0.01461764    -3.48318        1.6172268      0.57617188           295 
   2075000   1.0399855     -0.071517329   -3.3091051      1.5545804      0.56445312           289 
   2076000   1.0044072     -0.0019984749  -3.2934662      1.50123        0.546875             280 
   2077000   1.0171822     -0.21087153    -3.2896385      1.520225       0.53710938           275 
   2078000   0.9699869      0.16111429    -3.3349748      1.4498208      0.55078125           282 
   2079000   1.0645785      0.12558819    -3.1923707      1.5908869      0.52148438           267 
   2080000   1.0004265      0.014042999   -3.0385782      1.4948681      0.5078125            260 
   2081000   0.96842578     0.056616217   -3.360943       1.4476122      0.56445312           289 
   2082000   0.96935363    -0.1423464     -3.443599       1.4490848      0.57421875           294 
   2083000   1.0260511      0.031613532   -3.4437154      1.5338238      0.57226562           293 
   2084000   0.99850085     0.077752786   -3.2792435      1.4923637      0.54296875           278 
   2085000   1.0759406      0.023988787   -3.1203344      1.6077036      0.5078125            260 
   2086000   0.88658958     0.24200938    -2.9219756      1.324789       0.50976562           261 
   2087000   0.95148792     0.15778398    -3.1793709      1.4219847      0.53125              272 
   2088000   1.0599064      0.12345324    -3.2973125      1.5842811      0.55664062           285 
   2089000   0.99387446     0.038060658   -3.209304       1.4853105      0.52929688           271 
   2090000   1.0379257      0.12723488    -3.2089359      1.5511857      0.53320312           273 
   2091000   1.0527327     -0.13204427    -3.1901197      1.5732935      0.53125              272 
   2092000   1.0286978      0.052191666   -3.644062       1.5380852      0.60742188           311 
   2093000   0.9817794      0.24149991    -3.5858546      1.4679338      0.60742188           311 
   2094000   1.0947129     -0.050923896   -3.5463641      1.6366855      0.59570312           305 
   2095000   0.83922545    -0.064306794   -3.605715       1.2547905      0.60742188           311 
   2096000   0.90747524     0.10490227    -3.4874983      1.3567204      0.59179688           303 
   2097000   1.0380745      0.3338694     -3.4259513      1.5519213      0.5859375            300 
   2098000   1.0441781      0.11370341    -3.3398889      1.5607906      0.55859375           286 
   2099000   1.0186751      0.14580531    -3.3725285      1.5227437      0.56640625           290 
   2100000   1.0112058      0.17834204    -3.6105875      1.511868       0.59960938           307 
   2101000   0.95908121     0.30530441    -3.4404355      1.433778       0.58007812           297 
   2102000   1.0470492      0.20103045    -3.5599048      1.5655074      0.60546875           310 
   2103000   0.95995204    -0.046278932   -3.5383495      1.4350961      0.58203125           298 
   2104000   0.91750712     0.019488791   -3.4371841      1.3716268      0.58007812           297 
   2105000   0.96593862     0.49338557    -3.5189204      1.4442491      0.60742188           311 
   2106000   1.0671941      0.3092444     -3.5464954      1.5955253      0.59375              304 
   2107000   0.99008316     0.13768075    -3.4404474      1.4801243      0.58007812           297 
   2108000   1.0116312      0.080674791   -3.6148169      1.5125676      0.60742188           311 
   2109000   1.0118615      0.16372089    -3.3521527      1.5125764      0.56835938           291 
   2110000   1.0328142      0.28776353    -3.3813138      1.5439339      0.57226562           293 
   2111000   0.95469719    -0.11213381    -3.3345028      1.4268572      0.5390625            276 
   2112000   0.97918647    -0.028832207   -3.284512       1.4635341      0.546875             280 
   2113000   1.0208033     -0.084258372   -3.4103545      1.5259611      0.5703125            292 
   2114000   1.001741       0.036450803   -3.6740173      1.4977799      0.60742188           311 
   2115000   0.99340839     0.34333354    -3.7089497      1.4854705      0.62695312           321 
   2116000   0.90519418    -0.11692106    -3.7705473      1.353508       0.61914062           317 
   2117000   1.0751798     -0.097567082   -3.5144022      1.6073758      0.58398438           299 
   2118000   1.0067107     -0.16700928    -3.2976495      1.5046145      0.54101562           277 
   2119000   1.0190349     -0.091679294   -3.368042       1.5232633      0.56445312           289 
   2120000   1.0045609     -0.10022942    -3.4555153      1.5017507      0.578125             296 
   2121000   0.95812614    -0.092423609   -3.4004438      1.4322841      0.57226562           293 
   2122000   0.96247377     0.030387935   -3.3585542      1.4385911      0.55078125           282 
   2123000   1.074521       0.073766998   -3.6450147      1.6065314      0.59960938           307 
   2124000   0.92105063    -0.066713716   -3.559618       1.3770163      0.59179688           303 
   2125000   1.0123448     -0.025425279   -3.3432427      1.5131514      0.55273438           283 
   2126000   0.98097452    -0.059375202   -3.4870027      1.4665569      0.5859375            300 
   2127000   1.0125556     -0.16651824    -3.5199683      1.5137022      0.578125             296 
   2128000   0.94725325     0.095682225   -3.5729285      1.4162816      0.60351562           309 
   2129000   1.0491368      0.23044107    -3.4954966      1.5684769      0.58789062           301 
   2130000   1.0648584     -0.17893978    -3.6872257      1.5920677      0.59765625           306 
   2131000   1.0431829      0.43939309    -3.5194916      1.5595929      0.58984375           302 
   2132000   1.0811912      0.20526594    -3.7531826      1.6167502      0.62890625           322 
   2133000   1.1406942      0.13280905    -3.5838192      1.7054314      0.59570312           305 
   2134000   0.95628261    -0.24080497    -3.6919699      1.4297967      0.60546875           310 
   2135000   0.9655787      0.10644078    -3.5600143      1.4436348      0.59765625           306 
   2136000   0.96289873     0.09215104    -3.5019007      1.4395813      0.59179688           303 
   2137000   0.9556993     -0.39508118    -3.4617689      1.4286227      0.56835938           291 
   2138000   1.0303635      0.24641397    -3.255857       1.5400645      0.55078125           282 
   2139000   0.98584887    -0.48239121    -3.6527219      1.4739407      0.59765625           306 
   2140000   1.0400106      0.22558467    -3.6754929      1.5550792      0.6171875            316 
   2141000   1.023269       0.1466251     -3.3237448      1.5294606      0.55078125           282 
   2142000   0.95955296     0.50818063    -3.024781       1.4338358      0.51171875           262 
   2143000   0.96348187     0.12561388    -3.5505764      1.4405608      0.60546875           310 
   2144000   1.0005282      0.071187069   -3.5841723      1.4959666      0.60742188           311 
   2145000   1.0577474      0.18310606    -3.4332701      1.5811874      0.5703125            292 
   2146000   1.0104941      0.077738341   -3.6150305      1.5108038      0.59960938           307 
   2147000   0.9785356      0.27345789    -3.8211122      1.463342       0.64257812           329 
   2148000   1.0058915      0.15703948    -3.5193041      1.503874       0.59375              304 
   2149000   0.98456193     0.1054525     -3.4883626      1.4719201      0.5859375            300 
   2150000   0.98237253     0.19668124    -3.4972725      1.4686795      0.58984375           302 
   2151000   1.0084155      0.097081113   -3.5611679      1.5076639      0.59570312           305 
   2152000   1.0384386     -0.045371715   -3.5917705      1.5525         0.58984375           302 
   2153000   0.94445515    -0.32307753    -3.7882938      1.4122694      0.62695312           321 
   2154000   1.0337933     -0.052592428   -3.6883142      1.5457671      0.61523438           315 
   2155000   1.0625679      0.036821531   -3.3570641      1.5883559      0.56640625           290 
   2156000   0.97163575    -0.20684305    -3.3631194      1.4522484      0.546875             280 
   2157000   0.97801138     0.0953471     -3.3631618      1.4619055      0.56054688           287 
   2158000   0.98920531    -0.018676285   -3.1598711      1.4780568      0.50390625           258 
   2159000   0.99560527     0.042909509   -3.2206881      1.4878562      0.52539062           269 
   2160000   0.99348856    -0.09364327    -3.2706078      1.4847741      0.53320312           273 
   2161000   0.95996706     0.082520716   -3.4550695      1.4351667      0.58789062           301 
   2162000   1.043828       0.13535611    -3.4323487      1.5605403      0.58789062           301 
   2163000   0.95001115     0.090794408   -3.7067696      1.4205912      0.62890625           322 
   2164000   1.0001467     -0.16512062    -3.6055304      1.4953492      0.6015625            308 
   2165000   0.97691214     0.3125684     -3.6995697      1.4606715      0.609375             312 
   2166000   1.0733559     -0.16440135    -3.5664753      1.6046491      0.58398438           299 
   2167000   1.0230933      0.16701223    -3.509617       1.5295415      0.58789062           301 
   2168000   1.0462029      0.25814209    -3.5503226      1.5641251      0.59179688           303 
   2169000   0.89250827    -0.10728913    -3.4891891      1.3342396      0.578125             296 
   2170000   1.0420871     -0.096618755   -3.5784906      1.5579718      0.59179688           303 
   2171000   1.038263       0.37403701    -3.7271933      1.5525729      0.63085938           323 
   2172000   0.99761866     0.072312757   -3.6135994      1.4916317      0.609375             312 
   2173000   1.0114