ITEM: TIMESTEP
0
ITEM: NUMBER OF ATOMS
51
ITEM: BOX BOUNDS pp pp pp
0.0000000000000000e+00 8.0000000000000000e+00
0.0000000000000000e+00 8.0000000000000000e+00
0.0000000000000000e+00 8.0000000000000000e+00
ITEM: ATOMS id type xs ys zs
4 1 0.287212 0.178328 0.15372
11 1 0.389314 0.20325 0.0283752
6 1 0.937897 0.239911 0.180896
14 1 0.885648 0.0921736 0.162199
5 1 0.0909903 0.274588 0.0029996
7 1 0.387725 0.499741 0.147533
8 1 0.983305 0.408767 0.14182
12 1 0.901673 0.426497 0.142021
13 1 0.947487 0.410313 0.131189
2 1 0.359265 0.166507 0.486517
1 1 0.477732 0.237774 0.274907
10 1 0.803073 0.247842 0.476432
15 1 0.0710636 0.365339 0.253057
3 1 0.233195 0.306322 0.351015
9 1 0.564899 0.252126 0.488515
19 1 0.125365 0.0158677 0.688455
21 1 0.414293 0.0268763 0.70982
22 1 0.199757 0.31925 0.629269
16 1 0.365339 0.247039 0.98255
18 1 0.266145 0.0907329 0.947764
17 1 0.27271 0.436411 0.766495
23 1 0.349524 0.4523 0.808945
20 1 0.53445 0.49848 0.955361
34 1 0.212752 0.71471 0.130427
36 1 0.955409 0.556146 0.148152
29 1 0.464446 0.94098 0.050084
32 1 0.571655 0.802406 0.0330538
37 1 0.464031 0.961095 0.126031
33 1 0.624849 0.84204 0.159768
26 1 0.897656 0.909208 0.0605643
25 1 0.0474645 0.736082 0.328234
28 1 0.0737491 0.500707 0.384142
35 1 0.150335 0.681346 0.385815
31 1 0.415395 0.537304 0.467917
38 1 0.135109 0.783153 0.455307
27 1 0.319033 0.986642 0.493977
30 1 0.412081 0.841511 0.269317
24 1 0.910321 0.762198 0.262453
51 1 0.126712 0.651254 0.621634
42 1 0.904653 0.504523 0.516292
45 1 0.868247 0.629543 0.736225
43 1 0.277082 0.913817 0.529747
49 1 0.31754 0.886991 0.652059
50 1 0.587187 0.845576 0.590109
40 1 0.72266 0.753356 0.651519
41 1 0.0726859 0.631635 0.884707
47 1 0.513274 0.591114 0.845982
48 1 0.748293 0.554584 0.890737
39 1 0.632639 0.75641 0.991037
44 1 0.761514 0.770205 0.827817
46 1 0.725412 0.999458 0.888572
ITEM: TIMESTEP
936
ITEM: NUMBER OF ATOMS
51
ITEM: BOX BOUNDS pp pp pp
0.0000000000000000e+00 8.0000000000000000e+00
0.0000000000000000e+00 8.0000000000000000e+00
0.0000000000000000e+00 8.0000000000000000e+00
ITEM: ATOMS id type xs ys zs
10 1 0.761433 0.249227 0.474653
11 1 0.446029 0.435287 0.0442053
6 1 0.147645 0.381963 0.23107
14 1 0.101326 0.415607 0.10061
5 1 0.231362 0.347397 0.115861
16 1 0.21377 0.452245 0.0230666
8 1 0.208923 0.473362 0.15531
18 1 0.330138 0.450144 0.110075
7 1 0.442859 0.491113 0.180988
3 1 0.290212 0.401252 0.235315
22 1 0.323051 0.362055 0.00763713
17 1 0.333978 0.496927 0.9771
34 1 0.196136 0.686203 0.087609
42 1 0.117218 0.620602 0.299135
28 1 0.1924 0.59537 0.190937
43 1 0.297176 0.755188 0.283237
37 1 0.270905 0.788547 0.143723
33 1 0.392654 0.653042 0.285991
26 1 0.397664 0.755719 0.196033
25 1 0.0606303 0.745983 0.276316
30 1 0.303216 0.66309 0.180996
35 1 0.181182 0.722749 0.219697
31 1 0.255654 0.628092 0.306557
38 1 0.205627 0.851655 0.258221
24 1 0.0733788 0.651999 0.166819
41 1 0.267843 0.571775 0.0780053
51 1 0.179911 0.739943 0.35366
27 1 0.421742 0.794878 0.322003
13 1 0.129541 0.554918 0.0771574
4 1 0.317591 0.536675 0.215856
19 1 0.341012 0.875412 0.221388
48 1 0.489801 0.652731 0.0207426
12 1 0.0866521 0.511925 0.206214
1 1 0.52068 0.733344 0.245793
21 1 0.430847 0.93145 0.308216
49 1 0.308463 0.871203 0.355169
32 1 0.376519 0.697845 0.0793244
39 1 0.46144 0.634426 0.168223
2 1 0.477741 0.864024 0.191988
45 1 0.499571 0.755087 0.108647
46 1 0.383676 0.838038 0.0891151
50 1 0.507676 0.876261 0.0471104
20 1 0.532328 0.539039 0.0847081
47 1 0.399101 0.563435 0.0750012
9 1 0.5472 0.853453 0.311421
29 1 0.286771 0.762593 0.00606654
15 1 0.200904 0.500588 0.289223
40 1 0.56815 0.763447 0.988873
23 1 0.463603 0.537911 0.954212
44 1 0.42958 0.770492 0.978702
36 1 0.357333 0.63472 0.963549
ITEM: TIMESTEP
1000
ITEM: NUMBER OF ATOMS
115
ITEM: BOX BOUNDS pp pp pp
0.0000000000000000e+00 8.0000000000000000e+00
0.0000000000000000e+00 8.0000000000000000e+00
0.0000000000000000e+00 8.0000000000000000e+00
ITEM: ATOMS id type xs ys zs
124 1 0.0131268 0.225426 0.228501
183 1 0.472398 0.0969567 0.119992
184 1 0.667258 0.221087 0.235651
6 1 0.146075 0.380604 0.234176
14 1 0.0978317 0.41931 0.101302
5 1 0.198451 0.343669 0.104972
168 1 0.0763607 0.291958 0.141468
16 1 0.211308 0.451702 0.0200205
8 1 0.204184 0.473552 0.157754
18 1 0.324162 0.465979 0.104648
3 1 0.269766 0.399235 0.233261
22 1 0.320823 0.370461 0.0143315
56 1 0.35534 0.323739 0.156992
11 1 0.438045 0.421864 0.0506816
7 1 0.438814 0.48347 0.180108
77 1 0.567976 0.421745 0.0558192
115 1 0.492069 0.293706 0.0145636
70 1 0.677531 0.374705 0.0385981
98 1 0.947445 0.25418 0.00593104
141 1 0.14347 0.173698 0.306856
156 1 0.146978 0.0052654 0.338719
171 1 0.382676 0.235284 0.263228
103 1 0.550284 0.157232 0.28986
65 1 0.589016 0.0115018 0.287027
185 1 0.70498 0.147285 0.327036
149 1 0.0969801 0.393405 0.378613
81 1 0.317094 0.481664 0.339416
138 1 0.468095 0.440453 0.467756
10 1 0.758492 0.255208 0.474771
180 1 0.925786 0.401087 0.409294
157 1 0.356736 0.0240506 0.634432
130 1 0.314531 0.160725 0.62425
106 1 0.401908 0.248491 0.644236
178 1 0.790166 0.116057 0.675967
161 1 0.728762 0.300615 0.731481
131 1 0.0350268 0.193908 0.936078
121 1 0.346548 0.226118 0.91464
187 1 0.350094 0.0293813 0.811069
188 1 0.256032 0.133979 0.784235
133 1 0.674353 0.17629 0.848289
172 1 0.652742 0.164429 0.970581
153 1 0.816661 0.211663 0.782399
143 1 0.0399372 0.35739 0.85436
169 1 0.157359 0.41394 0.894262
17 1 0.334898 0.499775 0.96879
91 1 0.292396 0.386908 0.895305
162 1 0.807901 0.455931 0.791481
179 1 0.930932 0.379465 0.926758
34 1 0.195573 0.694658 0.0862816
28 1 0.196346 0.592246 0.199838
35 1 0.18488 0.721862 0.221821
24 1 0.0884755 0.653799 0.148197
13 1 0.129939 0.549229 0.0742849
12 1 0.0853616 0.514612 0.20807
30 1 0.300145 0.665277 0.178503
41 1 0.256888 0.587241 0.0710333
4 1 0.318982 0.543203 0.218489
32 1 0.373093 0.701872 0.0797551
47 1 0.400097 0.575046 0.0684818
48 1 0.491997 0.657973 0.0212165
1 1 0.516907 0.72754 0.249692
39 1 0.471533 0.629736 0.158127
20 1 0.529956 0.531377 0.0770755
68 1 0.67099 0.581051 0.0656943
58 1 0.977493 0.679541 0.232876
83 1 0.0321415 0.896724 0.201847
37 1 0.266489 0.794012 0.141799
26 1 0.390824 0.759979 0.198196
19 1 0.342753 0.88046 0.22129
46 1 0.377782 0.840577 0.0870713
29 1 0.286474 0.760449 0.00869085
2 1 0.475308 0.867375 0.192646
45 1 0.495268 0.756456 0.113264
50 1 0.495161 0.895826 0.0581016
165 1 0.84823 0.808569 0.0653325
42 1 0.106058 0.629283 0.297466
51 1 0.191751 0.733721 0.363632
15 1 0.196887 0.500079 0.292968
33 1 0.397463 0.642466 0.273638
31 1 0.257757 0.623406 0.312091
43 1 0.299304 0.74997 0.289503
134 1 0.483564 0.691701 0.407395
170 1 0.872501 0.538053 0.467938
79 1 0.954817 0.640764 0.354004
25 1 0.081988 0.789591 0.292183
167 1 0.106367 0.997057 0.462314
38 1 0.207393 0.851499 0.257713
49 1 0.308706 0.875843 0.34746
142 1 0.347335 0.786651 0.4477
27 1 0.423524 0.789742 0.329151
21 1 0.437358 0.929653 0.31194
9 1 0.549045 0.850064 0.309268
136 1 0.958872 0.83268 0.315126
182 1 0.804484 0.750881 0.368209
129 1 0.388564 0.711445 0.54016
144 1 0.219994 0.70359 0.510138
177 1 0.380509 0.562753 0.534615
137 1 0.698082 0.555675 0.721474
150 1 0.985098 0.632106 0.67579
186 1 0.823444 0.510717 0.650812
166 1 0.15408 0.863997 0.625973
139 1 0.292887 0.790372 0.611842
174 1 0.824092 0.815672 0.655555
151 1 0.0799604 0.556598 0.911349
36 1 0.358366 0.635289 0.961326
23 1 0.463963 0.534633 0.955628
176 1 0.65314 0.594386 0.920255
159 1 0.184159 0.96104 0.905265
164 1 0.0418525 0.980309 0.951885
55 1 0.267163 0.881798 0.956151
158 1 0.270324 0.912466 0.751875
44 1 0.422637 0.771541 0.976426
62 1 0.55725 0.862433 0.824394
40 1 0.57073 0.777333 0.996277
160 1 0.859888 0.888173 0.771585
ITEM: TIMESTEP
2000
ITEM: NUMBER OF ATOMS
284
ITEM: BOX BOUNDS pp pp pp
0.0000000000000000e+00 8.0000000000000000e+00
0.0000000000000000e+00 8.0000000000000000e+00
0.0000000000000000e+00 8.0000000000000000e+00
ITEM: ATOMS id type xs ys zs
800 1 0.183971 0.107151 0.107973
759 1 0.164398 0.230044 0.142208
539 1 0.307395 0.194719 0.0194831
748 1 0.251792 0.0822648 0.233565
30 1 0.362778 0.0285791 0.0405892
363 1 0.457356 0.21386 0.00952018
384 1 0.456609 0.22405 0.137818
726 1 0.578488 0.171535 0.0891636
168 1 0.66494 0.0984534 0.0326468
476 1 0.748463 0.0858519 0.221776
402 1 0.647512 0.0157052 0.157488
498 1 0.603866 0.237784 0.244449
834 1 0.803325 0.167148 0.0130691
727 1 0.883616 0.135781 0.124922
704 1 0.838127 0.0151333 0.0393729
790 1 0.808671 0.24529 0.163084
867 1 0.921403 0.179784 0.00786908
685 1 0.179494 0.48068 0.239529
815 1 0.0369411 0.269559 0.111874
565 1 0.0845427 0.373006 0.246532
8 1 0.101207 0.441138 0.0841763
519 1 0.217786 0.310538 0.037981
224 1 0.372334 0.307688 0.076774
604 1 0.211058 0.399405 0.136401
686 1 0.27535 0.284905 0.165112
622 1 0.453688 0.325946 0.235641
851 1 0.466322 0.372897 0.00562519
605 1 0.554308 0.304415 0.111677
803 1 0.41412 0.45924 0.214981
794 1 0.727269 0.349063 0.133829
70 1 0.609365 0.409962 0.181537
747 1 0.79052 0.471971 0.194183
831 1 0.977338 0.384257 0.0378764
713 1 0.831104 0.306925 0.00479158
869 1 0.962575 0.413517 0.158002
737 1 0.00558323 0.171417 0.264609
764 1 0.149259 0.13431 0.277298
552 1 0.202911 0.0585722 0.381289
662 1 0.280736 0.115282 0.487007
556 1 0.339185 0.203413 0.403186
855 1 0.211198 0.200174 0.394969
836 1 0.362418 0.147507 0.285509
722 1 0.591675 0.0708625 0.460088
115 1 0.518662 0.127346 0.281248
518 1 0.450849 0.0214831 0.323204
876 1 0.549106 0.200247 0.491024
456 1 0.618409 0.167212 0.354941
279 1 0.603546 0.0238532 0.293163
778 1 0.728946 0.115337 0.498768
469 1 0.819691 0.0617417 0.356954
765 1 0.969995 0.0392036 0.34743
818 1 0.902106 0.15793 0.39992
799 1 0.100791 0.280592 0.391112
597 1 0.174459 0.258675 0.284091
81 1 0.0609466 0.461451 0.480813
777 1 0.357858 0.429622 0.353899
245 1 0.337452 0.289219 0.306677
731 1 0.240424 0.341442 0.415239
870 1 0.472834 0.276157 0.368952
786 1 0.537543 0.36164 0.455096
341 1 0.503832 0.43517 0.337059
416 1 0.639666 0.390252 0.331969
715 1 0.655555 0.296951 0.439866
801 1 0.786149 0.345751 0.308946
569 1 0.72766 0.48794 0.380325
714 1 0.951466 0.319629 0.274569
739 1 0.865013 0.418116 0.447646
709 1 0.00356561 0.204132 0.728094
783 1 0.0382158 0.0924275 0.566644
776 1 0.11161 0.0361468 0.7047
788 1 0.139413 0.211858 0.690936
734 1 0.143584 0.0265821 0.506235
641 1 0.233324 0.141937 0.741578
757 1 0.227658 0.157808 0.605306
698 1 0.379259 0.18614 0.702633
781 1 0.380008 0.238996 0.556381
619 1 0.297696 0.039794 0.64358
176 1 0.550498 0.0837126 0.593101
458 1 0.459146 0.00493099 0.639748
697 1 0.584637 0.162624 0.710818
787 1 0.505264 0.233058 0.600113
596 1 0.65162 0.206552 0.550841
812 1 0.713037 0.123447 0.637168
746 1 0.881146 0.154199 0.534304
780 1 0.820882 0.0925659 0.709297
607 1 0.813085 0.242623 0.620472
635 1 0.968255 0.0745991 0.748755
656 1 0.154553 0.263967 0.544758
675 1 0.0628646 0.479403 0.613653
837 1 0.000572175 0.273825 0.574109
730 1 0.149065 0.477608 0.717829
7 1 0.192969 0.471211 0.521868
873 1 0.0765489 0.339074 0.677651
755 1 0.215768 0.365754 0.697116
770 1 0.273666 0.474442 0.638928
795 1 0.345371 0.369484 0.624346
577 1 0.242201 0.349696 0.545937
741 1 0.276491 0.262671 0.674645
773 1 0.386396 0.361574 0.500273
742 1 0.564497 0.374369 0.684805
634 1 0.537167 0.483199 0.608227
775 1 0.41392 0.483624 0.669755
807 1 0.796121 0.461381 0.55019
785 1 0.607835 0.346188 0.565951
761 1 0.793219 0.380779 0.716002
678 1 0.701616 0.261359 0.700778
849 1 0.624833 0.490401 0.509143
810 1 0.749716 0.347444 0.502501
791 1 0.679368 0.419845 0.647739
729 1 0.900797 0.354176 0.649916
655 1 0.915651 0.496128 0.572642
617 1 0.150832 0.234659 0.957806
507 1 0.352715 0.0806177 0.857197
29 1 0.207162 0.0771903 0.946526
683 1 0.48148 0.0863405 0.792571
158 1 0.479359 0.149158 0.905755
44 1 0.56763 0.0461588 0.921641
454 1 0.702558 0.115192 0.772577
659 1 0.749632 0.0385426 0.923526
817 1 0.653414 0.212247 0.877868
743 1 0.991889 0.186165 0.888801
670 1 0.898123 0.0609538 0.939257
738 1 0.814114 0.2276 0.859414
375 1 0.868836 0.0281438 0.815303
567 1 0.0620778 0.39157 0.802909
679 1 0.195805 0.331602 0.819129
736 1 0.0996983 0.269066 0.809863
696 1 0.267353 0.363242 0.924044
633 1 0.201457 0.485215 0.83163
728 1 0.374777 0.282016 0.941775
844 1 0.354008 0.356327 0.828594
819 1 0.459133 0.397303 0.770759
703 1 0.424176 0.250263 0.821929
774 1 0.590258 0.398184 0.943723
861 1 0.585177 0.260998 0.994988
282 1 0.719733 0.383836 0.983093
671 1 0.73912 0.383445 0.85654
682 1 0.905969 0.327098 0.910934
753 1 0.929717 0.306709 0.776561
540 1 0.811648 0.469032 0.948561
684 1 0.872377 0.411889 0.817047
41 1 0.0518933 0.609175 0.146305
16 1 0.180287 0.726475 0.0452293
623 1 0.0437725 0.521531 0.235664
6 1 0.18327 0.602171 0.246652
5 1 0.165744 0.553136 0.121393
872 1 0.363391 0.68899 0.185702
839 1 0.30396 0.571469 0.209903
660 1 0.595128 0.606981 0.144008
20 1 0.469691 0.619433 0.192606
443 1 0.526115 0.739637 0.0739047
694 1 0.419452 0.572322 0.0269324
845 1 0.68711 0.506123 0.120511
848 1 0.600621 0.530445 0.0133229
2 1 0.682339 0.705337 0.142976
580 1 0.650582 0.656551 0.000599435
28 1 0.98534 0.51113 0.0513281
798 1 0.84731 0.534859 0.0952979
828 1 0.898066 0.740495 0.0223446
441 1 0.866837 0.609344 0.200051
827 1 0.814724 0.738859 0.149323
35 1 0.179768 0.838215 0.132861
821 1 0.0519537 0.96292 0.0474353
716 1 0.225794 0.968572 0.122258
43 1 0.328891 0.818226 0.0930405
462 1 0.371016 0.935153 0.179261
21 1 0.49095 0.809484 0.202413
680 1 0.510421 0.996083 0.192966
386 1 0.550839 0.986871 0.0598444
37 1 0.414868 0.762484 0.0204594
267 1 0.4302 0.900297 0.0584973
330 1 0.743851 0.770302 0.0286854
40 1 0.692433 0.965796 0.0392354
45 1 0.605786 0.843171 0.141931
643 1 0.750738 0.931908 0.155245
24 1 0.989576 0.841251 0.188224
750 1 0.110976 0.541691 0.364764
859 1 0.0918371 0.69192 0.351376
49 1 0.123348 0.59865 0.482941
530 1 0.375762 0.561369 0.395948
841 1 0.259005 0.688571 0.436623
4 1 0.240869 0.537441 0.37568
348 1 0.541033 0.69514 0.419598
26 1 0.592246 0.723005 0.25192
31 1 0.461121 0.707759 0.318829
316 1 0.504236 0.548352 0.477184
484 1 0.604245 0.515766 0.259158
284 1 0.755521 0.664499 0.270422
501 1 0.653536 0.645826 0.463151
58 1 0.947046 0.617645 0.439088
805 1 0.871399 0.745763 0.40264
860 1 0.812753 0.623319 0.383549
756 1 0.986726 0.526714 0.362937
779 1 0.967218 0.654714 0.284337
856 1 0.805019 0.742078 0.496753
718 1 0.036217 0.908803 0.371922
846 1 0.120501 0.886857 0.262789
802 1 0.0974898 0.753518 0.479555
39 1 0.394512 0.81475 0.298484
705 1 0.355325 0.990115 0.487074
824 1 0.287236 0.856066 0.480014
621 1 0.224426 0.885709 0.358643
495 1 0.384123 0.770572 0.474801
366 1 0.32562 0.976898 0.317549
854 1 0.4412 0.896223 0.468991
27 1 0.548426 0.820779 0.332582
826 1 0.702313 0.955964 0.458915
426 1 0.78976 0.844434 0.361207
46 1 0.65968 0.844926 0.273368
620 1 0.723499 0.964248 0.291888
820 1 0.858911 0.887392 0.260904
564 1 0.895463 0.92073 0.394996
19 1 0.997761 0.772048 0.336769
213 1 0.848024 0.997123 0.498543
664 1 0.00870966 0.702058 0.565492
695 1 0.00595107 0.693116 0.728889
673 1 0.148758 0.581389 0.619213
833 1 0.0185982 0.547201 0.707833
464 1 0.31091 0.659648 0.629574
804 1 0.232519 0.644701 0.740695
566 1 0.216972 0.718167 0.557394
874 1 0.359273 0.540286 0.525484
33 1 0.323856 0.565483 0.718796
847 1 0.561535 0.647388 0.730594
858 1 0.482732 0.747158 0.685365
811 1 0.556754 0.676231 0.549733
598 1 0.747119 0.677083 0.670827
863 1 0.671912 0.56686 0.626731
691 1 0.766434 0.582622 0.539279
630 1 0.869681 0.648558 0.61568
613 1 0.0396608 0.940774 0.586683
435 1 0.165514 0.784579 0.721515
711 1 0.119519 0.840946 0.607453
665 1 0.220102 0.921901 0.584608
439 1 0.372104 0.870442 0.636248
797 1 0.215889 0.911655 0.697084
835 1 0.295224 0.823967 0.741517
808 1 0.561733 0.976993 0.737254
313 1 0.562773 0.94403 0.517149
708 1 0.685292 0.838421 0.667235
754 1 0.783804 0.86976 0.545333
650 1 0.669708 0.99036 0.612763
723 1 0.911289 0.966486 0.704346
868 1 0.833255 0.861537 0.679501
725 1 0.980912 0.844459 0.660708
590 1 0.974617 0.823919 0.500192
449 1 0.0537575 0.632665 0.845723
13 1 0.12111 0.532958 0.993338
862 1 0.0936559 0.727096 0.944863
866 1 0.25529 0.55116 0.995013
830 1 0.336492 0.677103 0.969275
871 1 0.362952 0.507563 0.862253
838 1 0.333627 0.702968 0.831298
852 1 0.223711 0.658767 0.919541
825 1 0.584888 0.63706 0.864513
875 1 0.580057 0.508187 0.779181
832 1 0.431962 0.652358 0.756139
595 1 0.712944 0.64875 0.810265
850 1 0.675145 0.527898 0.892012
461 1 0.849116 0.723352 0.771925
470 1 0.929708 0.599792 0.8285
843 1 0.82016 0.62987 0.909314
503 1 0.95991 0.724069 0.913199
840 1 0.923246 0.522454 0.9345
319 1 0.187228 0.934393 0.99878
857 1 0.19339 0.918925 0.832115
792 1 0.00728477 0.847459 0.851176
853 1 0.0792793 0.913015 0.756307
654 1 0.302423 0.952038 0.951798
793 1 0.310142 0.829671 0.871219
816 1 0.320617 0.940857 0.788555
377 1 0.220266 0.810001 0.956691
36 1 0.466346 0.86903 0.76188
32 1 0.539435 0.871613 0.959121
772 1 0.502319 0.775456 0.864828
677 1 0.432622 0.889194 0.885326
789 1 0.587552 0.879844 0.83356
760 1 0.763575 0.904921 0.929362
749 1 0.651389 0.766212 0.937379
864 1 0.619221 0.772951 0.7717
401 1 0.729076 0.943096 0.796839
600 1 0.741009 0.79386 0.82293
814 1 0.865185 0.842699 0.885119
762 1 0.976455 0.860126 0.996097
ITEM: TIMESTEP
3000
ITEM: NUMBER OF ATOMS
321
ITEM: BOX BOUNDS pp pp pp
0.0000000000000000e+00 8.0000000000000000e+00
0.0000000000000000e+00 8.0000000000000000e+00
0.0000000000000000e+00 8.0000000000000000e+00
ITEM: ATOMS id type xs ys zs
1014 1 0.119413 0.150915 0.109041
911 1 0.0845539 0.124416 0.241812
994 1 0.00702681 0.208257 0.0143256
890 1 0.132438 0.246694 0.247933
974 1 0.01413 0.0531724 0.145332
716 1 0.388289 0.160236 0.156634
903 1 0.32186 0.230898 0.0555844
158 1 0.378806 0.000919152 0.154975
670 1 0.248737 0.13761 0.210226
680 1 0.310608 0.0824986 0.0462628
950 1 0.248847 0.0138869 0.158901
539 1 0.508951 0.0896174 0.136891
935 1 0.412756 0.158404 0.00421451
798 1 0.511756 0.204919 0.0720587
384 1 0.688735 0.0250924 0.149231
912 1 0.752576 0.214142 0.106883
827 1 0.764368 0.0243846 0.0344895
765 1 0.853132 0.150436 0.130503
386 1 0.839878 0.162121 0.0071626
778 1 0.811152 0.011337 0.154639
1003 1 0.954062 0.0968199 0.0362066
834 1 0.0679724 0.35235 0.193534
5 1 0.0989415 0.388023 0.0730922
519 1 0.199896 0.293792 0.123935
727 1 0.292703 0.355853 0.215765
963 1 0.25529 0.420737 0.106522
224 1 0.417427 0.319829 0.130361
37 1 0.521703 0.408619 0.136595
363 1 0.625622 0.307115 0.125938
983 1 0.683429 0.359022 0.249318
914 1 0.644414 0.395562 0.0125321
28 1 0.776193 0.337 0.0167367
753 1 0.914976 0.282431 0.0807904
919 1 0.96543 0.404021 0.139879
441 1 0.829085 0.334053 0.161161
855 1 0.0676381 0.202228 0.42362
746 1 0.0232225 0.0367183 0.351317
800 1 0.325545 0.0365592 0.314436
886 1 0.214072 0.0811464 0.410053
1004 1 0.274111 0.174894 0.336064
795 1 0.350708 0.143541 0.496167
884 1 0.386107 0.218985 0.2801
895 1 0.352583 0.0161335 0.470802
951 1 0.580211 0.190684 0.430763
704 1 0.499235 0.136998 0.294855
787 1 0.403089 0.142636 0.386535
176 1 0.556686 0.0219285 0.252101
975 1 0.712707 0.18145 0.474846
596 1 0.682893 0.121146 0.344389
650 1 0.732908 0.0531365 0.44933
876 1 0.670814 0.247176 0.295692
998 1 0.772136 0.152823 0.254327
971 1 0.993571 0.225508 0.289629
498 1 0.898812 0.126821 0.279049
697 1 0.81109 0.132804 0.382909
783 1 0.943734 0.146686 0.478935
999 1 0.842089 0.242807 0.460093
759 1 0.167607 0.396345 0.278097
366 1 0.139862 0.306629 0.476589
773 1 0.170058 0.452341 0.410587
867 1 0.0494457 0.456244 0.313332
565 1 0.0664849 0.34356 0.357243
20 1 0.279047 0.46039 0.294725
871 1 0.301592 0.436062 0.440205
870 1 0.306832 0.269459 0.455527
245 1 0.396826 0.363684 0.400702
731 1 0.221996 0.312919 0.359557
989 1 0.551556 0.251389 0.257739
845 1 0.529106 0.384701 0.397339
416 1 0.461912 0.494637 0.4381
825 1 0.483966 0.421911 0.270928
888 1 0.713174 0.383173 0.3782
569 1 0.723008 0.499223 0.47511
976 1 0.797291 0.282389 0.302365
1009 1 0.998151 0.440154 0.439313
810 1 0.894224 0.350897 0.422448
913 1 0.854022 0.482263 0.443498
968 1 0.953611 0.359685 0.275437
807 1 0.97733 0.267271 0.498429
957 1 0.828155 0.422552 0.310763
788 1 0.103944 0.210562 0.723272
656 1 0.100891 0.201426 0.56609
853 1 0.0927586 0.0666682 0.691444
635 1 0.00690365 0.0126402 0.543801
556 1 0.220341 0.116021 0.550657
698 1 0.350227 0.0500022 0.620738
781 1 0.206961 0.204779 0.651426
1007 1 0.339996 0.193364 0.636895
854 1 0.496737 0.149525 0.62367
1000 1 0.453269 0.226189 0.517297
705 1 0.497319 0.0270657 0.738649
1010 1 0.782246 0.0166907 0.670676
458 1 0.659889 0.110256 0.640462
81 1 0.830745 0.199553 0.585553
917 1 0.975253 0.118852 0.647067
984 1 0.855167 0.0717679 0.528728
799 1 0.0857393 0.368091 0.733529
960 1 0.157509 0.438464 0.574981
882 1 0.284326 0.41212 0.565321
577 1 0.343435 0.411427 0.731789
1012 1 0.231676 0.47866 0.670259
940 1 0.232331 0.295835 0.745615
641 1 0.545027 0.279891 0.622662
987 1 0.587978 0.286492 0.507808
970 1 0.428766 0.479673 0.639346
791 1 0.54294 0.410214 0.650772
946 1 0.460278 0.367601 0.525937
986 1 0.658198 0.346222 0.720246
607 1 0.742352 0.451696 0.602093
954 1 0.737919 0.308392 0.617062
454 1 0.677899 0.382859 0.5057
630 1 0.883274 0.488142 0.56824
837 1 0.848189 0.346529 0.536541
761 1 0.829916 0.262951 0.699489
969 1 0.977966 0.278533 0.688508
955 1 0.863533 0.406787 0.68329
944 1 0.980467 0.379993 0.570143
797 1 0.00743088 0.131411 0.785706
993 1 0.158942 0.0221697 0.806595
991 1 0.0469291 0.0271928 0.950647
1015 1 0.179502 0.102512 0.936221
962 1 0.30162 0.175743 0.915677
857 1 0.277085 0.16974 0.78319
1001 1 0.369696 0.0593201 0.927149
495 1 0.402727 0.135895 0.829011
683 1 0.510489 0.227678 0.925336
933 1 0.534878 0.0582238 0.951269
985 1 0.691093 0.0619155 0.895034
915 1 0.626104 0.170181 0.86766
958 1 0.798247 0.170636 0.866328
848 1 0.705826 0.241467 0.786111
929 1 0.678866 0.0315649 0.752185
817 1 0.728442 0.233375 0.957173
956 1 0.860788 0.022984 0.956051
168 1 0.909283 0.0960775 0.861066
905 1 0.824616 0.10409 0.756914
730 1 0.14508 0.433551 0.910899
995 1 0.00636803 0.265924 0.817299
965 1 0.117165 0.289044 0.987514
939 1 0.142024 0.487289 0.788238
470 1 0.011827 0.43199 0.8141
887 1 0.256129 0.349555 0.985678
874 1 0.381617 0.489342 0.853786
728 1 0.395971 0.418811 0.990702
8 1 0.247171 0.475946 0.950586
736 1 0.37888 0.288411 0.938172
755 1 0.458754 0.386796 0.854115
891 1 0.523035 0.262319 0.800184
774 1 0.552517 0.364314 0.93013
738 1 0.599051 0.431403 0.803387
785 1 0.734447 0.353577 0.884017
282 1 0.899981 0.267347 0.953021
942 1 0.879667 0.350589 0.821492
892 1 0.873393 0.407104 0.949387
839 1 0.0954203 0.630478 0.167121
13 1 0.105381 0.707469 0.0367761
685 1 0.120497 0.509036 0.211527
696 1 0.15379 0.514746 0.0759062
6 1 0.269494 0.556607 0.143018
872 1 0.344637 0.675962 0.245258
952 1 0.215967 0.649931 0.0606221
852 1 0.312595 0.723983 0.116428
803 1 0.22225 0.644284 0.229793
633 1 0.447726 0.633754 0.151233
772 1 0.510008 0.524757 0.0912544
820 1 0.716345 0.703635 0.191701
540 1 0.665628 0.529062 0.0267336
896 1 0.619172 0.646087 0.115793
330 1 0.759928 0.521669 0.224064
899 1 0.96582 0.608698 0.101346
959 1 0.843857 0.630152 0.169248
869 1 0.902128 0.513687 0.204995
623 1 0.947412 0.735574 0.0810985
1016 1 0.850578 0.671944 0.0237571
24 1 0.168086 0.774796 0.134979
41 1 0.139306 0.994629 0.0929682
39 1 0.199691 0.886682 0.0581665
920 1 0.0229981 0.912736 0.00183272
910 1 0.0842604 0.879434 0.138008
879 1 0.355831 0.90886 0.0624204
881 1 0.217579 0.87827 0.1789
677 1 0.362354 0.813227 0.187258
931 1 0.441313 0.982215 0.0157431
832 1 0.557304 0.752023 0.0659477
267 1 0.512651 0.856198 0.156408
726 1 0.609803 0.993663 0.059251
46 1 0.7884 0.861111 0.239074
909 1 0.604203 0.899937 0.230261
45 1 0.656762 0.813653 0.157683
659 1 0.717553 0.911506 0.101853
843 1 0.739113 0.80411 0.0112412
930 1 0.91114 0.874134 0.221855
40 1 0.824026 0.810535 0.112014
977 1 0.935035 0.969975 0.0762168
1008 1 0.953381 0.999871 0.242558
622 1 0.192538 0.57539 0.332554
341 1 0.0881963 0.704592 0.306061
777 1 0.13401 0.578404 0.47923
927 1 0.0105452 0.577233 0.271215
590 1 0.228285 0.706343 0.414339
802 1 0.330128 0.603062 0.402789
443 1 0.412004 0.558012 0.294933
31 1 0.456775 0.681158 0.374588
794 1 0.599474 0.500641 0.405939
2 1 0.72754 0.546621 0.35809
996 1 0.626205 0.671632 0.476394
348 1 0.799621 0.618842 0.450091
900 1 0.864378 0.735961 0.483128
426 1 0.802692 0.725114 0.356465
860 1 0.964741 0.570766 0.413599
665 1 0.96753 0.732707 0.388761
949 1 0.938307 0.72932 0.254374
846 1 0.13194 0.810283 0.275009
961 1 0.136641 0.988386 0.26153
734 1 0.0666766 0.821622 0.414442
456 1 0.101894 0.989436 0.452918
29 1 0.338227 0.900096 0.288088
27 1 0.374423 0.781381 0.375781
922 1 0.2272 0.960021 0.459344
4 1 0.287749 0.806889 0.499444
564 1 0.270118 0.781513 0.270537
621 1 0.370383 0.893602 0.44303
945 1 0.219963 0.830215 0.375792
908 1 0.581162 0.93906 0.462006
462 1 0.471907 0.911021 0.340956
279 1 0.554588 0.757703 0.374319
115 1 0.654418 0.894402 0.367001
894 1 0.746566 0.781402 0.477839
284 1 0.683195 0.993238 0.285091
937 1 0.682489 0.772794 0.360365
722 1 0.819036 0.965525 0.310788
26 1 0.890962 0.854755 0.366323
213 1 0.977001 0.910534 0.465042
928 1 0.819472 0.936506 0.48483
804 1 0.0664326 0.60805 0.713448
756 1 0.0522539 0.536512 0.592745
664 1 0.0802046 0.709268 0.514261
449 1 0.167414 0.734662 0.667292
936 1 0.361701 0.540977 0.731303
990 1 0.308061 0.713958 0.601882
859 1 0.202722 0.604135 0.658164
316 1 0.353323 0.709415 0.74093
484 1 0.244414 0.534458 0.523838
863 1 0.539853 0.559061 0.657132
835 1 0.556327 0.706752 0.711834
634 1 0.405405 0.619191 0.621747
786 1 0.542069 0.712754 0.576383
530 1 0.405861 0.733127 0.505835
660 1 0.481688 0.610439 0.506448
948 1 0.683723 0.631438 0.677177
1002 1 0.639224 0.53714 0.573588
981 1 0.787843 0.575429 0.573008
982 1 0.74996 0.690295 0.571531
849 1 0.66856 0.501283 0.698629
856 1 0.937411 0.544574 0.675547
749 1 0.804897 0.515804 0.711025
980 1 0.889448 0.666691 0.696797
750 1 0.941066 0.622499 0.572494
619 1 0.0602789 0.927214 0.640924
833 1 0.0696068 0.802615 0.627662
776 1 0.153686 0.842937 0.508534
814 1 0.172465 0.891557 0.716246
552 1 0.305977 0.940907 0.719773
923 1 0.263652 0.837846 0.62545
757 1 0.22407 0.969948 0.586279
748 1 0.364737 0.912266 0.591608
518 1 0.429721 0.782605 0.629823
36 1 0.593355 0.989216 0.632493
934 1 0.529263 0.869566 0.700636
19 1 0.45867 0.979291 0.531987
30 1 0.490533 0.846285 0.520197
811 1 0.628285 0.789778 0.639663
58 1 0.762433 0.862288 0.580812
947 1 0.635536 0.835298 0.519299
918 1 0.696415 0.971339 0.533692
824 1 0.674971 0.908596 0.708966
754 1 0.802908 0.830721 0.702921
725 1 0.880898 0.923276 0.64639
711 1 0.939615 0.82303 0.55904
924 1 0.164125 0.710638 0.927193
503 1 0.0143305 0.604488 0.829616
7 1 0.13954 0.593898 0.97471
49 1 0.212504 0.714365 0.800248
770 1 0.30558 0.644887 0.926756
729 1 0.230156 0.572998 0.854965
775 1 0.500254 0.569736 0.809585
847 1 0.434894 0.5547 0.95427
864 1 0.588011 0.570012 0.907106
875 1 0.442065 0.682556 0.847198
941 1 0.402811 0.70754 0.987841
691 1 0.614804 0.6136 0.784691
858 1 0.778306 0.729617 0.859815
868 1 0.708299 0.656975 0.961762
671 1 0.72234 0.505754 0.821266
840 1 0.761399 0.63316 0.775555
684 1 0.786684 0.539034 0.961252
921 1 0.651128 0.728726 0.838277
828 1 0.897011 0.659959 0.884751
1013 1 0.922543 0.54731 0.974394
850 1 0.857705 0.54147 0.836182
792 1 0.017554 0.890842 0.873962
972 1 0.138686 0.896157 0.940259
862 1 0.0968339 0.785755 0.792019
617 1 0.254959 0.978103 0.956575
838 1 0.232876 0.803998 0.950376
1005 1 0.350746 0.910423 0.931253
966 1 0.340256 0.760014 0.879526
695 1 0.283592 0.835542 0.794759
1011 1 0.392122 0.97716 0.820593
464 1 0.553204 0.765489 0.902919
932 1 0.480001 0.901566 0.872938
654 1 0.446594 0.839328 0.99228
32 1 0.577831 0.873485 0.96258
816 1 0.589237 0.964768 0.834947
826 1 0.788446 0.948589 0.798295
643 1 0.750788 0.903668 0.916826
988 1 0.931582 0.999778 0.756605
1006 1 0.879294 0.865627 0.992535
461 1 0.933636 0.778738 0.825544
789 1 0.889251 0.939716 0.868005
760 1 0.996056 0.755261 0.928976
ITEM: TIMESTEP
4000
ITEM: NUMBER OF ATOMS
333
ITEM: BOX BOUNDS pp pp pp
0.0000000000000000e+00 8.0000000000000000e+00
0.0000000000000000e+00 8.0000000000000000e+00
0.0000000000000000e+00 8.0000000000000000e+00
ITEM: ATOMS id type xs ys zs
991 1 0.12324 0.0303739 0.00364897
886 1 0.185943 0.0717589 0.134737
994 1 0.0509914 0.206052 0.122218
1008 1 0.0248176 0.130079 0.234096
6 1 0.124953 0.205975 0.220527
1039 1 0.274581 0.0585547 0.0186674
962 1 0.385052 0.125632 0.0158676
727 1 0.281927 0.184316 0.236754
41 1 0.290565 0.0203868 0.23773
224 1 0.343063 0.0928922 0.155875
1087 1 0.240471 0.195037 0.0909009
683 1 0.500157 0.0745783 0.139182
363 1 0.673192 0.22473 0.0822542
753 1 0.775001 0.216514 0.190858
441 1 0.665715 0.155395 0.203512
726 1 0.641287 0.0362826 0.141913
1009 1 0.770545 0.0227088 0.15582
1029 1 0.699055 0.105484 0.0368349
1024 1 0.833947 0.134152 0.0918433
498 1 0.923875 0.0623018 0.134684
867 1 0.914682 0.239491 0.163061
168 1 0.957867 0.122262 0.0285136
974 1 0.142907 0.3075 0.0808977
1069 1 0.0687146 0.354833 0.208193
1014 1 0.266654 0.366115 0.171792
903 1 0.389431 0.32153 0.243677
887 1 0.298614 0.396477 0.0280794
1020 1 0.563474 0.265717 0.0286319
1035 1 0.418265 0.25867 0.0547849
983 1 0.560194 0.269237 0.157779
1044 1 0.592241 0.427364 0.128991
876 1 0.702981 0.322836 0.188904
785 1 0.819736 0.487319 0.0265143
1074 1 0.824682 0.342118 0.0572087
1057 1 0.832959 0.35913 0.190881
892 1 0.98105 0.456 0.0125681
995 1 0.943308 0.258703 0.0354986
1083 1 0.054014 0.227091 0.441189
1077 1 0.164884 0.24496 0.379942
1019 1 0.06606 0.0206324 0.362956
635 1 0.131625 0.141727 0.496021
965 1 0.205001 0.111744 0.337217
37 1 0.314946 0.248251 0.360306
621 1 0.332521 0.100463 0.436374
884 1 0.388786 0.201362 0.478808
539 1 0.573106 0.0399255 0.312499
798 1 0.546862 0.153409 0.270153
931 1 0.471154 0.0164726 0.414555
895 1 0.501572 0.154412 0.446059
158 1 0.408868 0.132478 0.331928